REMARK SMILES CS(=O)(=O)CC[NH2+]Cc1ccc(-c2ccc3ncnc(Nc4ccc(OCc5cccc(F)c5)c(Cl)c4)c3c2)o1
REMARK SMILES IDX 13 1 14 2 15 3 16 4 17 5 18 6 19 7 20 8 38 9 39 10 12 11
REMARK SMILES IDX 9 12 10 13 40 14 11 15 8 16 7 17 6 20 5 21 2 22 3 23 4 24
REMARK SMILES IDX 1 25 21 26 22 28 23 29 37 30 24 31 35 32 25 33 36 34 26 35
REMARK SMILES IDX 27 36 28 37 29 38 34 39 30 40 32 41 31 42 33 43
REMARK H PARENT 7 18 7 19 21 27
ROOT
ATOM      1  C   UNL     1      -2.170   2.398  -0.881  1.00  0.00    +0.018 A 
ATOM      2  C   UNL     1      -2.557   2.681  -2.192  1.00  0.00    +0.014 A 
ATOM      3  C   UNL     1      -1.627   2.623  -3.236  1.00  0.00    +0.030 A 
ATOM      4  C   UNL     1      -0.298   2.290  -3.021  1.00  0.00    +0.076 A 
ATOM      5  N   UNL     1       0.518   2.230  -4.074  1.00  0.00    -0.236 NA
ATOM      6  C   UNL     1       1.787   1.887  -3.830  1.00  0.00    +0.224 A 
ATOM      7  N   UNL     1       2.309   1.610  -2.633  1.00  0.00    -0.219 NA
ATOM      8  C   UNL     1       1.487   1.697  -1.573  1.00  0.00    +0.141 A 
ATOM      9  C   UNL     1       0.123   2.025  -1.712  1.00  0.00    +0.044 A 
ATOM     10  C   UNL     1      -0.825   2.079  -0.651  1.00  0.00    +0.026 A 
ENDROOT
BRANCH   1  11
ATOM     11  C   UNL     1      -3.129   2.424   0.217  1.00  0.00    +0.134 A 
ATOM     12  C   UNL     1      -5.175   2.299   1.029  1.00  0.00    +0.158 A 
ATOM     13  C   UNL     1      -4.342   2.474   2.111  1.00  0.00    +0.052 A 
ATOM     14  O   UNL     1      -4.445   2.270  -0.125  1.00  0.00    -0.455 OA
ATOM     15  C   UNL     1      -3.026   2.548   1.589  1.00  0.00    +0.051 A 
BRANCH  12  16
ATOM     16  C   UNL     1      -6.638   2.127   0.875  1.00  0.00    +0.337 C 
BRANCH  16  17
ATOM     17  N   UNL     1      -6.972   1.159  -0.217  1.00  0.00    -0.339 N 
ATOM     18  H   UNL     1      -7.978   1.280  -0.457  1.00  0.00    +0.346 HD
ATOM     19  H   UNL     1      -6.440   1.460  -1.045  1.00  0.00    +0.346 HD
BRANCH  17  20
ATOM     20  C   UNL     1      -6.690  -0.286   0.099  1.00  0.00    +0.277 C 
BRANCH  20  21
ATOM     21  C   UNL     1      -7.267  -1.211  -0.964  1.00  0.00    +0.197 C 
BRANCH  21  22
ATOM     22  S   UNL     1      -9.035  -1.159  -0.862  1.00  0.00    +0.152 S 
ATOM     23  O   UNL     1      -9.368   0.236  -1.108  1.00  0.00    -0.229 OA
ATOM     24  O   UNL     1      -9.397  -1.784   0.391  1.00  0.00    -0.229 OA
ATOM     25  C   UNL     1      -9.600  -2.160  -2.219  1.00  0.00    +0.158 C 
ENDBRANCH  21  22
ENDBRANCH  20  21
ENDBRANCH  17  20
ENDBRANCH  16  17
ENDBRANCH  12  16
ENDBRANCH   1  11
BRANCH   8  26
ATOM     26  N   UNL     1       2.013   1.453  -0.284  1.00  0.00    -0.340 N 
ATOM     27  H   UNL     1       1.750   2.169   0.380  1.00  0.00    +0.168 HD
BRANCH  26  28
ATOM     28  C   UNL     1       3.098   0.653   0.119  1.00  0.00    +0.041 A 
ATOM     29  C   UNL     1       3.654  -0.341  -0.696  1.00  0.00    +0.030 A 
ATOM     30  C   UNL     1       3.602   0.798   1.422  1.00  0.00    +0.050 A 
ATOM     31  C   UNL     1       4.704  -1.147  -0.243  1.00  0.00    +0.050 A 
ATOM     32  C   UNL     1       4.651  -0.004   1.881  1.00  0.00    +0.085 A 
ATOM     33  C   UNL     1       5.215  -0.963   1.039  1.00  0.00    +0.138 A 
ATOM     34 Cl   UNL     1       5.215   0.220   3.497  1.00  0.00    -0.080 Cl
BRANCH  33  35
ATOM     35  O   UNL     1       6.212  -1.795   1.473  1.00  0.00    -0.487 OA
BRANCH  35  36
ATOM     36  C   UNL     1       7.494  -1.273   1.103  1.00  0.00    +0.265 C 
BRANCH  36  37
ATOM     37  C   UNL     1       8.552  -2.158   1.711  1.00  0.00    -0.008 A 
ATOM     38  C   UNL     1       8.796  -2.121   3.094  1.00  0.00    +0.007 A 
ATOM     39  C   UNL     1       9.292  -3.043   0.917  1.00  0.00    +0.046 A 
ATOM     40  C   UNL     1       9.769  -2.943   3.669  1.00  0.00    +0.003 A 
ATOM     41  C   UNL     1      10.258  -3.857   1.500  1.00  0.00    +0.123 A 
ATOM     42  C   UNL     1      10.504  -3.813   2.867  1.00  0.00    +0.039 A 
ATOM     43  F   UNL     1      10.961  -4.698   0.730  1.00  0.00    -0.207 F 
ENDBRANCH  36  37
ENDBRANCH  35  36
ENDBRANCH  33  35
ENDBRANCH  26  28
ENDBRANCH   8  26
TORSDOF 11
