REMARK SMILES Cc1ccc(C(=O)Nc2cccc(C(F)(F)F)c2)cc1Nc1nc2ccccc2n1-c1cc(NCCCC[NH+](C)C)ncn1
REMARK SMILES IDX 31 1 32 2 33 3 42 4 43 5 44 6 30 7 22 8 23 9 24 10 29 11
REMARK SMILES IDX 25 12 28 13 26 14 27 15 21 16 20 18 2 19 3 20 4 21 19 22
REMARK SMILES IDX 5 23 1 24 6 25 7 26 8 27 9 29 10 30 18 31 11 32 13 33 12 34
REMARK SMILES IDX 14 35 15 36 16 37 17 38 34 39 35 41 36 42 37 43 38 44 39 45
REMARK SMILES IDX 40 46 41 47
REMARK H PARENT 21 17 8 28 34 40 39 48
ROOT
ATOM      1  C   UNL     1      -0.017   2.080   1.907  1.00  0.00    +0.145 A 
ATOM      2  C   UNL     1       0.703   1.070   2.520  1.00  0.00    +0.094 A 
ATOM      3  C   UNL     1       2.074   1.034   2.314  1.00  0.00    +0.131 A 
ATOM      4  N   UNL     1       2.687   1.936   1.542  1.00  0.00    -0.219 NA
ATOM      5  C   UNL     1       1.924   2.886   0.997  1.00  0.00    +0.226 A 
ATOM      6  N   UNL     1       0.600   2.996   1.134  1.00  0.00    -0.218 NA
ENDROOT
BRANCH   1   7
ATOM      7  N   UNL     1      -1.435   2.224   2.101  1.00  0.00    -0.262 N 
ATOM      8  C   UNL     1      -2.354   1.332   2.673  1.00  0.00    +0.214 A 
ATOM      9  N   UNL     1      -3.497   1.920   2.939  1.00  0.00    -0.212 NA
ATOM     10  C   UNL     1      -3.431   3.147   2.352  1.00  0.00    +0.091 A 
ATOM     11  C   UNL     1      -2.182   3.364   1.776  1.00  0.00    +0.076 A 
ATOM     12  C   UNL     1      -4.429   4.130   2.270  1.00  0.00    +0.031 A 
ATOM     13  C   UNL     1      -1.897   4.566   1.101  1.00  0.00    +0.029 A 
ATOM     14  C   UNL     1      -4.155   5.322   1.596  1.00  0.00    +0.002 A 
ATOM     15  C   UNL     1      -2.907   5.533   1.018  1.00  0.00    +0.002 A 
BRANCH   8  16
ATOM     16  N   UNL     1      -2.153   0.024   2.964  1.00  0.00    -0.325 N 
ATOM     17  H   UNL     1      -2.767  -0.303   3.710  1.00  0.00    +0.170 HD
BRANCH  16  18
ATOM     18  C   UNL     1      -1.849  -1.032   2.066  1.00  0.00    +0.045 A 
ATOM     19  C   UNL     1      -1.660  -2.340   2.578  1.00  0.00    -0.027 A 
ATOM     20  C   UNL     1      -1.345  -3.397   1.708  1.00  0.00    +0.006 A 
ATOM     21  C   UNL     1      -1.179  -3.167   0.346  1.00  0.00    +0.014 A 
ATOM     22  C   UNL     1      -1.663  -0.815   0.692  1.00  0.00    +0.040 A 
ATOM     23  C   UNL     1      -1.336  -1.876  -0.161  1.00  0.00    +0.042 A 
ATOM     24  C   UNL     1      -1.824  -2.645   4.046  1.00  0.00    +0.046 C 
BRANCH  23  25
ATOM     25  C   UNL     1      -1.074  -1.646  -1.604  1.00  0.00    +0.255 C 
ATOM     26  O   UNL     1      -0.091  -2.199  -2.087  1.00  0.00    -0.269 OA
ATOM     27  N   UNL     1      -1.982  -0.822  -2.234  1.00  0.00    -0.322 N 
ATOM     28  H   UNL     1      -2.776  -0.504  -1.688  1.00  0.00    +0.170 HD
BRANCH  27  29
ATOM     29  C   UNL     1      -1.961  -0.390  -3.577  1.00  0.00    +0.042 A 
ATOM     30  C   UNL     1      -0.974  -0.747  -4.496  1.00  0.00    +0.026 A 
ATOM     31  C   UNL     1      -3.000   0.453  -3.993  1.00  0.00    +0.039 A 
ATOM     32  C   UNL     1      -1.022  -0.270  -5.809  1.00  0.00    +0.003 A 
ATOM     33  C   UNL     1      -3.064   0.934  -5.313  1.00  0.00    +0.058 A 
ATOM     34  C   UNL     1      -2.058   0.569  -6.216  1.00  0.00    +0.013 A 
BRANCH  33  35
ATOM     35  C   UNL     1      -4.179   1.860  -5.735  1.00  0.00    +0.416 C 
ATOM     36  F   UNL     1      -5.351   1.601  -5.090  1.00  0.00    -0.166 F 
ATOM     37  F   UNL     1      -3.888   3.163  -5.474  1.00  0.00    -0.166 F 
ATOM     38  F   UNL     1      -4.460   1.792  -7.064  1.00  0.00    -0.166 F 
ENDBRANCH  33  35
ENDBRANCH  27  29
ENDBRANCH  23  25
ENDBRANCH  16  18
ENDBRANCH   8  16
ENDBRANCH   1   7
BRANCH   3  39
ATOM     39  N   UNL     1       2.813  -0.017   2.858  1.00  0.00    -0.370 N 
ATOM     40  H   UNL     1       2.395  -0.404   3.700  1.00  0.00    +0.162 HD
BRANCH  39  41
ATOM     41  C   UNL     1       4.269   0.052   2.898  1.00  0.00    +0.114 C 
BRANCH  41  42
ATOM     42  C   UNL     1       4.976   0.064   1.539  1.00  0.00    +0.027 C 
BRANCH  42  43
ATOM     43  C   UNL     1       4.385  -0.817   0.435  1.00  0.00    +0.063 C 
BRANCH  43  44
ATOM     44  C   UNL     1       4.224  -2.273   0.848  1.00  0.00    +0.261 C 
BRANCH  44  45
ATOM     45  N   UNL     1       3.805  -3.160  -0.306  1.00  0.00    -0.340 N 
ATOM     46  C   UNL     1       4.861  -3.355  -1.355  1.00  0.00    +0.332 C 
ATOM     47  C   UNL     1       2.481  -2.776  -0.911  1.00  0.00    +0.332 C 
ATOM     48  H   UNL     1       3.651  -4.087   0.109  1.00  0.00    +0.347 HD
ENDBRANCH  44  45
ENDBRANCH  43  44
ENDBRANCH  42  43
ENDBRANCH  41  42
ENDBRANCH  39  41
ENDBRANCH   3  39
TORSDOF 12
