REMARK SMILES CC(C)COC(=O)Nc1ccc(-c2cnc3c(-c4cccc(N5CC[NH+](C)CC5)c4)cnn3c2N)cc1
REMARK SMILES IDX 9 1 10 2 11 3 12 4 36 5 37 6 8 7 6 8 7 9 5 11 4 12 2 13 1 14
REMARK SMILES IDX 3 15 13 16 14 17 34 18 15 19 33 20 16 21 32 22 17 23 31 24
REMARK SMILES IDX 35 25 18 28 19 29 30 30 20 31 22 32 21 33 23 34 24 35 29 36
REMARK SMILES IDX 25 37 28 38 26 39 27 40
REMARK H PARENT 8 10 35 26 35 27 26 41
ROOT
ATOM      1  C   UNL     1       4.665  -0.083   0.470  1.00  0.00    +0.044 A 
ATOM      2  C   UNL     1       3.910   0.079  -0.693  1.00  0.00    +0.027 A 
ATOM      3  C   UNL     1       2.633  -0.486  -0.796  1.00  0.00    +0.011 A 
ATOM      4  C   UNL     1       2.092  -1.222   0.263  1.00  0.00    -0.013 A 
ATOM      5  C   UNL     1       2.848  -1.384   1.429  1.00  0.00    +0.011 A 
ATOM      6  C   UNL     1       4.125  -0.821   1.529  1.00  0.00    +0.027 A 
ENDROOT
BRANCH   1   7
ATOM      7  N   UNL     1       5.951   0.452   0.646  1.00  0.00    -0.291 N 
ATOM      8  C   UNL     1       6.677   1.221  -0.219  1.00  0.00    +0.411 C 
ATOM      9  O   UNL     1       6.353   1.618  -1.327  1.00  0.00    -0.224 OA
ATOM     10  H   UNL     1       6.434   0.266   1.514  1.00  0.00    +0.173 HD
BRANCH   8  11
ATOM     11  O   UNL     1       7.872   1.495   0.370  1.00  0.00    -0.449 OA
BRANCH  11  12
ATOM     12  C   UNL     1       8.760   2.293  -0.427  1.00  0.00    +0.238 C 
BRANCH  12  13
ATOM     13  C   UNL     1      10.071   2.501   0.341  1.00  0.00    +0.021 C 
ATOM     14  C   UNL     1      10.990   3.454  -0.420  1.00  0.00    +0.011 C 
ATOM     15  C   UNL     1      10.782   1.171   0.599  1.00  0.00    +0.011 C 
ENDBRANCH  12  13
ENDBRANCH  11  12
ENDBRANCH   8  11
ENDBRANCH   1   7
BRANCH   4  16
ATOM     16  C   UNL     1       0.745  -1.796   0.153  1.00  0.00    +0.042 C 
ATOM     17  C   UNL     1      -0.443  -0.896   0.006  1.00  0.00    +0.126 C 
ATOM     18  C   UNL     1       0.472  -3.120   0.164  1.00  0.00    +0.136 C 
ATOM     19  N   UNL     1      -1.690  -1.246  -0.103  1.00  0.00    -0.236 NA
ATOM     20  N   UNL     1      -0.886  -3.526   0.048  1.00  0.00    -0.198 N 
ATOM     21  C   UNL     1      -1.930  -2.596  -0.081  1.00  0.00    +0.165 A 
ATOM     22  N   UNL     1      -1.351  -4.810   0.031  1.00  0.00    -0.172 NA
ATOM     23  C   UNL     1      -3.095  -3.339  -0.183  1.00  0.00    +0.047 A 
ATOM     24  C   UNL     1      -2.668  -4.681  -0.110  1.00  0.00    +0.146 A 
BRANCH  18  25
ATOM     25  N   UNL     1       1.410  -4.127   0.264  1.00  0.00    -0.383 N 
ATOM     26  H   UNL     1       2.403  -3.932   0.252  1.00  0.00    +0.158 HD
ATOM     27  H   UNL     1       1.071  -5.088   0.217  1.00  0.00    +0.158 HD
ENDBRANCH  18  25
BRANCH  23  28
ATOM     28  C   UNL     1      -4.435  -2.801  -0.359  1.00  0.00    -0.011 A 
ATOM     29  C   UNL     1      -5.362  -3.475  -1.154  1.00  0.00    +0.009 A 
ATOM     30  C   UNL     1      -4.829  -1.611   0.277  1.00  0.00    +0.034 A 
ATOM     31  C   UNL     1      -6.648  -2.965  -1.307  1.00  0.00    +0.003 A 
ATOM     32  C   UNL     1      -6.107  -1.045   0.113  1.00  0.00    +0.038 A 
ATOM     33  C   UNL     1      -7.011  -1.768  -0.679  1.00  0.00    +0.026 A 
BRANCH  32  34
ATOM     34  N   UNL     1      -6.435   0.161   0.724  1.00  0.00    -0.360 N 
ATOM     35  C   UNL     1      -5.440   1.250   0.739  1.00  0.00    +0.178 C 
ATOM     36  C   UNL     1      -7.826   0.606   0.880  1.00  0.00    +0.178 C 
ATOM     37  C   UNL     1      -5.750   2.245  -0.401  1.00  0.00    +0.283 C 
ATOM     38  C   UNL     1      -8.194   1.597  -0.245  1.00  0.00    +0.283 C 
ATOM     39  N   UNL     1      -7.193   2.759  -0.285  1.00  0.00    -0.334 N 
ATOM     40  C   UNL     1      -7.521   3.746  -1.361  1.00  0.00    +0.332 C 
ATOM     41  H   UNL     1      -7.262   3.243   0.619  1.00  0.00    +0.347 HD
ENDBRANCH  32  34
ENDBRANCH  23  28
ENDBRANCH   4  16
TORSDOF 8
