REMARK SMILES Cc1ccc(NC(=O)c2cccc(C(F)(F)F)c2)cc1Nc1nc2ccccc2n1-c1cc(NCCCC[NH3+])ncn1
REMARK SMILES IDX 31 1 32 2 33 3 40 4 41 5 42 6 30 7 22 8 23 9 24 10 29 11
REMARK SMILES IDX 25 12 28 13 26 14 27 15 21 16 20 18 2 19 3 20 4 21 19 22
REMARK SMILES IDX 5 23 1 24 6 25 7 26 8 27 9 29 10 30 18 31 11 32 13 33 12 34
REMARK SMILES IDX 14 35 15 36 16 37 17 38 34 39 35 41 36 42 37 43 38 44 39 45
REMARK H PARENT 21 17 6 28 34 40 39 46 39 47 39 48
ROOT
ATOM      1  C   UNL     1       0.695  -1.718  -1.643  1.00  0.00    +0.145 A 
ATOM      2  C   UNL     1       1.249  -2.121  -0.443  1.00  0.00    +0.094 A 
ATOM      3  C   UNL     1       2.231  -1.310   0.091  1.00  0.00    +0.131 A 
ATOM      4  N   UNL     1       2.680  -0.205  -0.528  1.00  0.00    -0.219 NA
ATOM      5  C   UNL     1       2.133   0.060  -1.723  1.00  0.00    +0.226 A 
ATOM      6  N   UNL     1       1.153  -0.634  -2.307  1.00  0.00    -0.218 NA
ENDROOT
BRANCH   1   7
ATOM      7  N   UNL     1      -0.391  -2.448  -2.223  1.00  0.00    -0.262 N 
ATOM      8  C   UNL     1      -1.379  -3.211  -1.586  1.00  0.00    +0.214 A 
ATOM      9  N   UNL     1      -2.025  -3.960  -2.450  1.00  0.00    -0.212 NA
ATOM     10  C   UNL     1      -1.637  -3.526  -3.684  1.00  0.00    +0.091 A 
ATOM     11  C   UNL     1      -0.653  -2.546  -3.589  1.00  0.00    +0.076 A 
ATOM     12  C   UNL     1      -2.100  -3.935  -4.944  1.00  0.00    +0.031 A 
ATOM     13  C   UNL     1      -0.095  -1.952  -4.735  1.00  0.00    +0.029 A 
ATOM     14  C   UNL     1      -1.564  -3.340  -6.090  1.00  0.00    +0.002 A 
ATOM     15  C   UNL     1      -0.576  -2.363  -5.983  1.00  0.00    +0.002 A 
BRANCH   8  16
ATOM     16  N   UNL     1      -1.690  -3.213  -0.264  1.00  0.00    -0.325 N 
ATOM     17  H   UNL     1      -2.268  -4.004   0.016  1.00  0.00    +0.170 HD
BRANCH  16  18
ATOM     18  C   UNL     1      -1.773  -2.138   0.651  1.00  0.00    +0.046 A 
ATOM     19  C   UNL     1      -1.763  -2.404   2.038  1.00  0.00    -0.027 A 
ATOM     20  C   UNL     1      -1.718  -1.337   2.949  1.00  0.00    +0.008 A 
ATOM     21  C   UNL     1      -1.633  -0.018   2.502  1.00  0.00    +0.026 A 
ATOM     22  C   UNL     1      -1.776  -0.797   0.229  1.00  0.00    +0.052 A 
ATOM     23  C   UNL     1      -1.654   0.259   1.138  1.00  0.00    +0.043 A 
ATOM     24  C   UNL     1      -1.795  -3.813   2.571  1.00  0.00    +0.046 C 
BRANCH  23  25
ATOM     25  N   UNL     1      -1.558   1.562   0.609  1.00  0.00    -0.322 N 
ATOM     26  C   UNL     1      -1.048   2.669   1.260  1.00  0.00    +0.255 C 
ATOM     27  O   UNL     1      -0.494   2.669   2.356  1.00  0.00    -0.269 OA
ATOM     28  H   UNL     1      -1.876   1.671  -0.347  1.00  0.00    +0.170 HD
BRANCH  26  29
ATOM     29  C   UNL     1      -1.124   3.947   0.503  1.00  0.00    +0.040 A 
ATOM     30  C   UNL     1      -1.404   5.121   1.209  1.00  0.00    +0.014 A 
ATOM     31  C   UNL     1      -0.876   4.003  -0.875  1.00  0.00    +0.027 A 
ATOM     32  C   UNL     1      -1.467   6.342   0.538  1.00  0.00    +0.001 A 
ATOM     33  C   UNL     1      -0.925   5.233  -1.556  1.00  0.00    +0.056 A 
ATOM     34  C   UNL     1      -1.233   6.398  -0.837  1.00  0.00    +0.013 A 
BRANCH  33  35
ATOM     35  C   UNL     1      -0.652   5.280  -3.042  1.00  0.00    +0.416 C 
ATOM     36  F   UNL     1       0.489   4.608  -3.365  1.00  0.00    -0.166 F 
ATOM     37  F   UNL     1      -1.645   4.695  -3.763  1.00  0.00    -0.166 F 
ATOM     38  F   UNL     1      -0.503   6.537  -3.535  1.00  0.00    -0.166 F 
ENDBRANCH  33  35
ENDBRANCH  26  29
ENDBRANCH  23  25
ENDBRANCH  16  18
ENDBRANCH   8  16
ENDBRANCH   1   7
BRANCH   3  39
ATOM     39  N   UNL     1       2.883  -1.595   1.288  1.00  0.00    -0.370 N 
ATOM     40  H   UNL     1       3.589  -2.320   1.125  1.00  0.00    +0.162 HD
BRANCH  39  41
ATOM     41  C   UNL     1       2.054  -1.913   2.455  1.00  0.00    +0.114 C 
BRANCH  41  42
ATOM     42  C   UNL     1       2.663  -1.252   3.692  1.00  0.00    +0.027 C 
BRANCH  42  43
ATOM     43  C   UNL     1       2.229   0.206   3.926  1.00  0.00    +0.063 C 
BRANCH  43  44
ATOM     44  C   UNL     1       2.217   1.143   2.723  1.00  0.00    +0.258 C 
BRANCH  44  45
ATOM     45  N   UNL     1       3.479   1.055   1.968  1.00  0.00    -0.358 N 
ATOM     46  H   UNL     1       3.475   1.699   1.171  1.00  0.00    +0.344 HD
ATOM     47  H   UNL     1       4.321   1.204   2.528  1.00  0.00    +0.344 HD
ATOM     48  H   UNL     1       3.533   0.115   1.523  1.00  0.00    +0.344 HD
ENDBRANCH  44  45
ENDBRANCH  43  44
ENDBRANCH  42  43
ENDBRANCH  41  42
ENDBRANCH  39  41
ENDBRANCH   3  39
TORSDOF 12
