REMARK SMILES C[NH+]1CCN(c2ccc(-c3cnn4c(-c5cccc(NC(=O)c6cccc(C(F)(F)F)c6)c5)ccnc34)cn2)CC1
REMARK SMILES IDX 15 1 16 2 17 3 18 4 19 5 33 6 14 7 10 8 11 9 37 10 12 11
REMARK SMILES IDX 36 12 13 13 35 14 34 15 9 16 6 17 7 18 39 19 8 20 38 21 5 22
REMARK SMILES IDX 2 23 3 24 41 25 4 26 40 27 1 28 20 30 21 31 22 32 23 34
REMARK SMILES IDX 24 35 32 36 25 37 27 38 26 39 28 40 29 41 30 42 31 43
REMARK H PARENT 2 29 20 33
ROOT
ATOM      1  C   UNL     1       2.555   0.767  -1.829  1.00  0.00    +0.002 A 
ATOM      2  C   UNL     1       2.474   1.586  -2.961  1.00  0.00    +0.010 A 
ATOM      3  C   UNL     1       3.619   2.194  -3.476  1.00  0.00    +0.003 A 
ATOM      4  C   UNL     1       4.857   1.984  -2.868  1.00  0.00    +0.026 A 
ATOM      5  C   UNL     1       4.965   1.164  -1.740  1.00  0.00    +0.042 A 
ATOM      6  C   UNL     1       3.810   0.571  -1.222  1.00  0.00    +0.036 A 
ENDROOT
BRANCH   1   7
ATOM      7  C   UNL     1       1.347   0.113  -1.278  1.00  0.00    +0.076 C 
ATOM      8  C   UNL     1      -1.910   1.151  -0.211  1.00  0.00    +0.048 A 
ATOM      9  C   UNL     1      -1.291   2.344  -0.635  1.00  0.00    +0.146 A 
ATOM     10  C   UNL     1      -0.957   0.172  -0.443  1.00  0.00    +0.163 A 
ATOM     11  N   UNL     1      -0.061   2.165  -1.104  1.00  0.00    -0.174 NA
ATOM     12  N   UNL     1      -0.966  -1.183  -0.228  1.00  0.00    -0.236 NA
ATOM     13  N   UNL     1       0.174   0.831  -0.968  1.00  0.00    -0.214 N 
ATOM     14  C   UNL     1       0.129  -1.815  -0.521  1.00  0.00    +0.116 C 
ATOM     15  C   UNL     1       1.368  -1.218  -1.073  1.00  0.00    +0.049 C 
BRANCH   8  16
ATOM     16  C   UNL     1      -3.229   0.942   0.365  1.00  0.00    +0.006 A 
ATOM     17  C   UNL     1      -5.758   0.500   1.450  1.00  0.00    +0.128 A 
ATOM     18  C   UNL     1      -5.159   1.749   1.579  1.00  0.00    +0.047 A 
ATOM     19  N   UNL     1      -5.147  -0.504   0.794  1.00  0.00    -0.239 NA
ATOM     20  C   UNL     1      -3.891   1.971   1.034  1.00  0.00    +0.014 A 
ATOM     21  C   UNL     1      -3.907  -0.269   0.280  1.00  0.00    +0.122 A 
BRANCH  17  22
ATOM     22  N   UNL     1      -7.024   0.267   1.984  1.00  0.00    -0.345 N 
ATOM     23  N   UNL     1      -8.998  -1.185   0.438  1.00  0.00    -0.334 N 
ATOM     24  C   UNL     1      -7.823  -1.923   1.099  1.00  0.00    +0.283 C 
ATOM     25  C   UNL     1      -8.613   0.257   0.088  1.00  0.00    +0.283 C 
ATOM     26  C   UNL     1      -7.317  -1.133   2.326  1.00  0.00    +0.179 C 
ATOM     27  C   UNL     1      -8.122   1.006   1.349  1.00  0.00    +0.179 C 
ATOM     28  C   UNL     1      -9.515  -1.930  -0.753  1.00  0.00    +0.332 C 
ATOM     29  H   UNL     1      -9.750  -1.139   1.136  1.00  0.00    +0.347 HD
ENDBRANCH  17  22
ENDBRANCH   8  16
ENDBRANCH   1   7
BRANCH   5  30
ATOM     30  N   UNL     1       6.251   0.996  -1.182  1.00  0.00    -0.322 N 
ATOM     31  C   UNL     1       6.608   0.147  -0.150  1.00  0.00    +0.255 C 
ATOM     32  O   UNL     1       5.893  -0.686   0.395  1.00  0.00    -0.269 OA
ATOM     33  H   UNL     1       6.993   1.518  -1.629  1.00  0.00    +0.170 HD
BRANCH  31  34
ATOM     34  C   UNL     1       8.031   0.245   0.284  1.00  0.00    +0.040 A 
ATOM     35  C   UNL     1       8.712   1.468   0.308  1.00  0.00    +0.014 A 
ATOM     36  C   UNL     1       8.682  -0.922   0.708  1.00  0.00    +0.027 A 
ATOM     37  C   UNL     1      10.044   1.516   0.722  1.00  0.00    +0.001 A 
ATOM     38  C   UNL     1      10.020  -0.881   1.134  1.00  0.00    +0.056 A 
ATOM     39  C   UNL     1      10.696   0.349   1.125  1.00  0.00    +0.013 A 
BRANCH  38  40
ATOM     40  C   UNL     1      10.721  -2.148   1.560  1.00  0.00    +0.416 C 
ATOM     41  F   UNL     1      11.794  -1.922   2.367  1.00  0.00    -0.166 F 
ATOM     42  F   UNL     1      11.194  -2.855   0.497  1.00  0.00    -0.166 F 
ATOM     43  F   UNL     1       9.911  -2.999   2.247  1.00  0.00    -0.166 F 
ENDBRANCH  38  40
ENDBRANCH  31  34
ENDBRANCH   5  30
TORSDOF 6
