REMARK SMILES CC(C)COC(=O)Nc1ccc(-c2cnc3c(-c4cccc(N5CCOCC5)c4)cnn3c2N)cc1
REMARK SMILES IDX 6 1 7 2 8 3 5 5 4 6 2 7 1 8 3 9 9 10 10 11 36 12 11 13 35 14
REMARK SMILES IDX 12 15 13 16 14 17 33 18 15 19 32 20 16 21 31 22 17 23 30 24
REMARK SMILES IDX 34 25 18 28 19 29 29 30 20 31 22 32 21 33 23 34 24 35 28 36
REMARK SMILES IDX 25 37 27 38 26 39
REMARK H PARENT 8 4 34 26 34 27
ROOT
ATOM      1  C   UNL     1       7.027   0.092   0.706  1.00  0.00    +0.411 C 
ATOM      2  O   UNL     1       6.832   1.174   1.237  1.00  0.00    -0.224 OA
ATOM      3  N   UNL     1       6.117  -0.730   0.104  1.00  0.00    -0.291 N 
ATOM      4  H   UNL     1       6.527  -1.575  -0.266  1.00  0.00    +0.173 HD
ENDROOT
BRANCH   1   5
ATOM      5  O   UNL     1       8.247  -0.504   0.620  1.00  0.00    -0.449 OA
BRANCH   5   6
ATOM      6  C   UNL     1       9.318   0.248   1.210  1.00  0.00    +0.238 C 
BRANCH   6   7
ATOM      7  C   UNL     1      10.631  -0.523   1.024  1.00  0.00    +0.021 C 
ATOM      8  C   UNL     1      10.972  -0.694  -0.458  1.00  0.00    +0.011 C 
ATOM      9  C   UNL     1      11.772   0.183   1.754  1.00  0.00    +0.011 C 
ENDBRANCH   6   7
ENDBRANCH   5   6
ENDBRANCH   1   5
BRANCH   3  10
ATOM     10  C   UNL     1       4.735  -0.538  -0.052  1.00  0.00    +0.044 A 
ATOM     11  C   UNL     1       4.048   0.584   0.415  1.00  0.00    +0.027 A 
ATOM     12  C   UNL     1       4.020  -1.540  -0.718  1.00  0.00    +0.027 A 
ATOM     13  C   UNL     1       2.667   0.703   0.219  1.00  0.00    +0.011 A 
ATOM     14  C   UNL     1       2.640  -1.423  -0.915  1.00  0.00    +0.011 A 
ATOM     15  C   UNL     1       1.954  -0.298  -0.448  1.00  0.00    -0.013 A 
BRANCH  15  16
ATOM     16  C   UNL     1       0.505  -0.177  -0.651  1.00  0.00    +0.042 C 
ATOM     17  C   UNL     1      -0.434  -1.096   0.066  1.00  0.00    +0.126 C 
ATOM     18  C   UNL     1      -0.077   0.724  -1.474  1.00  0.00    +0.136 C 
ATOM     19  N   UNL     1      -1.728  -1.117  -0.022  1.00  0.00    -0.236 NA
ATOM     20  N   UNL     1      -1.496   0.720  -1.575  1.00  0.00    -0.198 N 
ATOM     21  C   UNL     1      -2.287  -0.190  -0.860  1.00  0.00    +0.165 A 
ATOM     22  N   UNL     1      -2.258   1.554  -2.346  1.00  0.00    -0.172 NA
ATOM     23  C   UNL     1      -3.601   0.097  -1.191  1.00  0.00    +0.047 A 
ATOM     24  C   UNL     1      -3.509   1.171  -2.101  1.00  0.00    +0.146 A 
BRANCH  18  25
ATOM     25  N   UNL     1       0.595   1.654  -2.242  1.00  0.00    -0.383 N 
ATOM     26  H   UNL     1       0.032   2.267  -2.828  1.00  0.00    +0.158 HD
ATOM     27  H   UNL     1       1.605   1.700  -2.256  1.00  0.00    +0.158 HD
ENDBRANCH  18  25
BRANCH  23  28
ATOM     28  C   UNL     1      -4.784  -0.578  -0.674  1.00  0.00    -0.011 A 
ATOM     29  C   UNL     1      -4.783  -1.952  -0.422  1.00  0.00    +0.009 A 
ATOM     30  C   UNL     1      -5.963   0.154  -0.442  1.00  0.00    +0.034 A 
ATOM     31  C   UNL     1      -5.934  -2.576   0.049  1.00  0.00    +0.003 A 
ATOM     32  C   UNL     1      -7.137  -0.446   0.046  1.00  0.00    +0.037 A 
ATOM     33  C   UNL     1      -7.093  -1.829   0.275  1.00  0.00    +0.026 A 
BRANCH  32  34
ATOM     34  N   UNL     1      -8.308   0.272   0.277  1.00  0.00    -0.367 N 
ATOM     35  C   UNL     1      -8.964   0.120   1.591  1.00  0.00    +0.145 C 
ATOM     36  C   UNL     1      -8.514   1.591  -0.346  1.00  0.00    +0.145 C 
ATOM     37  C   UNL     1     -10.430   0.574   1.515  1.00  0.00    +0.181 C 
ATOM     38  C   UNL     1     -10.004   1.964  -0.330  1.00  0.00    +0.181 C 
ATOM     39  O   UNL     1     -10.550   1.908   0.997  1.00  0.00    -0.378 OA
ENDBRANCH  32  34
ENDBRANCH  23  28
ENDBRANCH  15  16
ENDBRANCH   3  10
TORSDOF 8
