REMARK SMILES Clc1ccccc1-c1nnc2sc(-c3cccnc3)nn12
REMARK SMILES IDX 8 1 9 2 10 3 11 4 12 5 13 6 20 7 21 8 7 9 2 10 3 11 4 12
REMARK SMILES IDX 6 13 5 14 1 15 14 16 15 17 19 18 16 19 18 20 17 21
REMARK H PARENT
ROOT
ATOM      1  C   UNL     1       1.692  -1.418  -0.793  1.00  0.00    +0.187 A 
ATOM      2  N   UNL     1       1.944  -2.650  -1.232  1.00  0.00    -0.127 NA
ATOM      3  N   UNL     1       0.737  -3.321  -1.413  1.00  0.00    -0.117 NA
ATOM      4  C   UNL     1      -0.184  -2.477  -1.054  1.00  0.00    +0.235 A 
ATOM      5  S   UNL     1      -1.883  -2.460  -0.910  1.00  0.00    -0.073 SA
ATOM      6  C   UNL     1      -1.709  -0.804  -0.256  1.00  0.00    +0.149 C 
ATOM      7  N   UNL     1      -0.494  -0.327  -0.163  1.00  0.00    -0.152 NA
ATOM      8  N   UNL     1       0.332  -1.299  -0.640  1.00  0.00    -0.182 N 
ENDROOT
BRANCH   1   9
ATOM      9  C   UNL     1       2.676  -0.397  -0.451  1.00  0.00    +0.040 A 
ATOM     10  C   UNL     1       2.655   0.907  -0.972  1.00  0.00    +0.052 A 
ATOM     11  C   UNL     1       3.627   1.838  -0.585  1.00  0.00    +0.021 A 
ATOM     12  C   UNL     1       4.633   1.477   0.311  1.00  0.00    +0.002 A 
ATOM     13  C   UNL     1       3.710  -0.750   0.434  1.00  0.00    +0.013 A 
ATOM     14  C   UNL     1       4.678   0.181   0.816  1.00  0.00    +0.001 A 
ATOM     15 Cl   UNL     1       1.493   1.425  -2.146  1.00  0.00    -0.084 Cl
ENDBRANCH   1   9
BRANCH   6  16
ATOM     16  C   UNL     1      -2.906  -0.038   0.152  1.00  0.00    +0.031 A 
ATOM     17  C   UNL     1      -4.212  -0.535   0.106  1.00  0.00    +0.014 A 
ATOM     18  C   UNL     1      -2.735   1.263   0.615  1.00  0.00    +0.122 A 
ATOM     19  C   UNL     1      -5.272   0.273   0.517  1.00  0.00    +0.021 A 
ATOM     20  N   UNL     1      -3.749   2.068   1.021  1.00  0.00    -0.264 NA
ATOM     21  C   UNL     1      -4.995   1.554   0.962  1.00  0.00    +0.111 A 
ENDBRANCH   6  16
TORSDOF 2
