REMARK SMILES COc1cc2c(cc1Cl)CCN=C2c1ccc(F)cc1
REMARK SMILES IDX 3 1 4 2 5 3 6 4 7 5 8 6 9 7 10 8 11 9 12 10 13 11 2 12 1 13
REMARK SMILES IDX 14 14 15 15 20 16 16 17 19 18 17 19 18 20
REMARK H PARENT
ROOT
ATOM      1  C   UNL     1      -2.520   0.712  -0.418  1.00  0.00    +0.138 A 
ATOM      2  C   UNL     1      -1.131   0.541  -0.360  1.00  0.00    +0.058 A 
ATOM      3  C   UNL     1      -0.584  -0.740  -0.198  1.00  0.00    +0.007 A 
ATOM      4  C   UNL     1      -1.419  -1.864  -0.147  1.00  0.00    -0.035 A 
ATOM      5  C   UNL     1      -2.805  -1.699  -0.188  1.00  0.00    +0.029 A 
ATOM      6  C   UNL     1      -3.350  -0.418  -0.321  1.00  0.00    +0.083 A 
ATOM      7 Cl   UNL     1      -5.073  -0.278  -0.373  1.00  0.00    -0.080 Cl
ATOM      8  C   UNL     1      -0.785  -3.220  -0.024  1.00  0.00    +0.060 C 
ATOM      9  C   UNL     1       0.532  -3.222  -0.795  1.00  0.00    +0.147 C 
ATOM     10  N   UNL     1       1.424  -2.138  -0.363  1.00  0.00    -0.284 NA
ATOM     11  C   UNL     1       0.888  -0.988  -0.097  1.00  0.00    +0.072 C 
ENDROOT
BRANCH   1  12
ATOM     12  O   UNL     1      -3.145   1.924  -0.563  1.00  0.00    -0.495 OA
ATOM     13  C   UNL     1      -2.332   3.084  -0.686  1.00  0.00    +0.278 C 
ENDBRANCH   1  12
BRANCH  11  14
ATOM     14  C   UNL     1       1.800   0.101   0.345  1.00  0.00    +0.000 A 
ATOM     15  C   UNL     1       2.975   0.334  -0.381  1.00  0.00    +0.013 A 
ATOM     16  C   UNL     1       1.520   0.850   1.496  1.00  0.00    +0.013 A 
ATOM     17  C   UNL     1       3.851   1.342   0.024  1.00  0.00    +0.040 A 
ATOM     18  C   UNL     1       2.401   1.857   1.896  1.00  0.00    +0.040 A 
ATOM     19  C   UNL     1       3.554   2.096   1.154  1.00  0.00    +0.123 A 
ATOM     20  F   UNL     1       4.396   3.063   1.542  1.00  0.00    -0.207 F 
ENDBRANCH  11  14
TORSDOF 2
