REMARK SMILES CC(=O)O[C@H]1[C@H](OC(=O)c2ccccc2)[C@@]2(C)[C@@H](OC(=O)/C=C/c3ccccc3)C[C@@H]3[C@@H](OC(C)=O)[C@]2(OC3(C)C)[C@@](C)(O)[C@H]1O
REMARK SMILES IDX 5 1 6 2 16 3 17 4 18 5 30 6 31 7 32 8 37 9 38 10 39 11 40 12
REMARK SMILES IDX 41 13 42 14 43 15 45 16 4 17 2 18 3 19 1 20 7 21 8 22 9 23
REMARK SMILES IDX 10 24 11 25 15 26 12 27 14 28 13 29 46 30 44 32 19 34 20 35
REMARK SMILES IDX 21 36 22 37 23 38 24 39 25 40 29 41 26 42 28 43 27 44 33 45
REMARK SMILES IDX 34 46 36 47 35 48
REMARK H PARENT 46 31 44 33
ROOT
ATOM      1  C   UNL     1      -1.964   0.008  -2.026  1.00  0.00    +0.249 C 
ATOM      2  C   UNL     1      -0.723  -0.030  -1.104  1.00  0.00    +0.233 C 
ATOM      3  C   UNL     1      -0.338  -1.494  -0.682  1.00  0.00    +0.081 C 
ATOM      4  C   UNL     1       0.164  -2.272  -1.938  1.00  0.00    +0.023 C 
ATOM      5  C   UNL     1       0.902  -1.489   0.302  1.00  0.00    +0.190 C 
ATOM      6  C   UNL     1       0.931  -2.655   1.326  1.00  0.00    +0.056 C 
ATOM      7  C   UNL     1      -0.447  -3.197   1.779  1.00  0.00    +0.068 C 
ATOM      8  C   UNL     1      -1.205  -3.582   0.513  1.00  0.00    +0.218 C 
ATOM      9  C   UNL     1      -1.594  -2.164   0.012  1.00  0.00    +0.149 C 
ATOM     10  O   UNL     1      -1.820  -1.379   1.251  1.00  0.00    -0.361 OA
ATOM     11  C   UNL     1      -1.374  -2.135   2.394  1.00  0.00    +0.070 C 
ATOM     12  C   UNL     1      -0.715  -1.222   3.434  1.00  0.00    +0.042 C 
ATOM     13  C   UNL     1      -2.616  -2.719   3.102  1.00  0.00    +0.042 C 
ATOM     14  C   UNL     1      -2.924  -2.066  -0.827  1.00  0.00    +0.125 C 
ATOM     15  C   UNL     1      -3.048  -3.063  -1.988  1.00  0.00    +0.048 C 
ATOM     16  C   UNL     1      -3.183  -0.623  -1.339  1.00  0.00    +0.193 C 
ENDROOT
BRANCH   1  17
ATOM     17  O   UNL     1      -2.340   1.381  -2.317  1.00  0.00    -0.456 OA
BRANCH  17  18
ATOM     18  C   UNL     1      -1.882   1.905  -3.486  1.00  0.00    +0.303 C 
ATOM     19  O   UNL     1      -1.214   1.307  -4.317  1.00  0.00    -0.253 OA
ATOM     20  C   UNL     1      -2.314   3.334  -3.612  1.00  0.00    +0.139 C 
ENDBRANCH  17  18
ENDBRANCH   1  17
BRANCH   2  21
ATOM     21  O   UNL     1       0.414   0.558  -1.786  1.00  0.00    -0.454 OA
BRANCH  21  22
ATOM     22  C   UNL     1       0.677   1.864  -1.531  1.00  0.00    +0.338 C 
ATOM     23  O   UNL     1       0.010   2.610  -0.832  1.00  0.00    -0.246 OA
BRANCH  22  24
ATOM     24  C   UNL     1       1.938   2.279  -2.194  1.00  0.00    +0.060 A 
ATOM     25  C   UNL     1       2.500   1.550  -3.250  1.00  0.00    +0.015 A 
ATOM     26  C   UNL     1       2.572   3.443  -1.740  1.00  0.00    +0.015 A 
ATOM     27  C   UNL     1       3.693   1.980  -3.836  1.00  0.00    +0.001 A 
ATOM     28  C   UNL     1       3.765   3.867  -2.327  1.00  0.00    +0.001 A 
ATOM     29  C   UNL     1       4.324   3.135  -3.374  1.00  0.00    +0.000 A 
ENDBRANCH  22  24
ENDBRANCH  21  22
ENDBRANCH   2  21
BRANCH  16  30
ATOM     30  O   UNL     1      -3.607   0.204  -0.234  1.00  0.00    -0.386 OA
ATOM     31  H   UNL     1      -3.547   1.130  -0.539  1.00  0.00    +0.211 HD
ENDBRANCH  16  30
BRANCH  14  32
ATOM     32  O   UNL     1      -4.042  -2.373   0.040  1.00  0.00    -0.384 OA
ATOM     33  H   UNL     1      -4.068  -1.609   0.658  1.00  0.00    +0.211 HD
ENDBRANCH  14  32
BRANCH   5  34
ATOM     34  O   UNL     1       0.990  -0.224   0.985  1.00  0.00    -0.458 OA
BRANCH  34  35
ATOM     35  C   UNL     1       2.238   0.218   1.286  1.00  0.00    +0.331 C 
ATOM     36  O   UNL     1       3.279  -0.405   1.161  1.00  0.00    -0.247 OA
BRANCH  35  37
ATOM     37  C   UNL     1       2.125   1.616   1.744  1.00  0.00    +0.094 C 
ATOM     38  C   UNL     1       3.236   2.329   1.980  1.00  0.00    +0.015 C 
BRANCH  38  39
ATOM     39  C   UNL     1       3.246   3.750   2.355  1.00  0.00    -0.025 A 
ATOM     40  C   UNL     1       4.347   4.533   1.979  1.00  0.00    +0.008 A 
ATOM     41  C   UNL     1       2.223   4.346   3.102  1.00  0.00    +0.008 A 
ATOM     42  C   UNL     1       4.412   5.886   2.322  1.00  0.00    +0.001 A 
ATOM     43  C   UNL     1       2.288   5.699   3.445  1.00  0.00    +0.001 A 
ATOM     44  C   UNL     1       3.381   6.469   3.053  1.00  0.00    +0.000 A 
ENDBRANCH  38  39
ENDBRANCH  35  37
ENDBRANCH  34  35
ENDBRANCH   5  34
BRANCH   8  45
ATOM     45  O   UNL     1      -2.327  -4.423   0.808  1.00  0.00    -0.459 OA
BRANCH  45  46
ATOM     46  C   UNL     1      -2.063  -5.745   0.975  1.00  0.00    +0.303 C 
ATOM     47  O   UNL     1      -0.956  -6.260   0.896  1.00  0.00    -0.253 OA
ATOM     48  C   UNL     1      -3.328  -6.487   1.275  1.00  0.00    +0.139 C 
ENDBRANCH  45  46
ENDBRANCH   8  45
TORSDOF 13
