REMARK SMILES C[NH+]1CC[C@@]2(C)c3cc(OC(=O)Nc4cccc(C#N)c4)ccc3[NH+](C)[C@@H]12
REMARK SMILES IDX 10 1 9 2 2 3 3 4 27 5 4 6 25 7 5 8 24 9 7 10 23 11 8 12
REMARK SMILES IDX 22 13 1 14 26 16 6 18 11 19 12 20 13 21 14 23 15 24 21 25
REMARK SMILES IDX 16 26 18 27 17 28 19 29 20 30
REMARK H PARENT 2 15 25 17 13 22
ROOT
ATOM      1  O   UNL     1       2.084  -1.165  -1.267  1.00  0.00    -0.410 OA
ENDROOT
BRANCH   1   2
ATOM      2  C   UNL     1       0.695  -1.292  -1.182  1.00  0.00    +0.133 A 
ATOM      3  N   UNL     1      -3.599   0.392   1.001  1.00  0.00    -0.287 N 
ATOM      4  C   UNL     1      -2.463   1.409   1.114  1.00  0.00    +0.268 C 
ATOM      5  C   UNL     1      -3.700  -0.025  -0.450  1.00  0.00    +0.399 C 
ATOM      6  C   UNL     1      -2.288   1.934  -0.295  1.00  0.00    +0.086 C 
ATOM      7  N   UNL     1      -3.437  -1.502  -0.583  1.00  0.00    -0.255 N 
ATOM      8  C   UNL     1      -2.554   0.723  -1.186  1.00  0.00    +0.110 C 
ATOM      9  C   UNL     1      -2.001  -1.579  -0.846  1.00  0.00    +0.140 A 
ATOM     10  C   UNL     1      -1.478  -0.327  -1.174  1.00  0.00    +0.035 A 
ATOM     11  C   UNL     1      -1.211  -2.705  -0.693  1.00  0.00    +0.072 A 
ATOM     12  C   UNL     1      -0.118  -0.172  -1.381  1.00  0.00    +0.058 A 
ATOM     13  C   UNL     1       0.165  -2.554  -0.871  1.00  0.00    +0.053 A 
ATOM     14  C   UNL     1      -4.893   0.944   1.548  1.00  0.00    +0.337 C 
ATOM     15  H   UNL     1      -3.328  -0.378   1.623  1.00  0.00    +0.353 HD
ATOM     16  C   UNL     1      -4.207  -2.167  -1.697  1.00  0.00    +0.343 C 
ATOM     17  H   UNL     1      -3.640  -2.032   0.270  1.00  0.00    +0.359 HD
ATOM     18  C   UNL     1      -2.899   1.139  -2.615  1.00  0.00    +0.030 C 
ENDBRANCH   1   2
BRANCH   1  19
ATOM     19  C   UNL     1       2.629  -0.492  -0.171  1.00  0.00    +0.417 C 
ATOM     20  O   UNL     1       1.955  -0.041   0.749  1.00  0.00    -0.224 OA
ATOM     21  N   UNL     1       3.988  -0.433  -0.328  1.00  0.00    -0.291 N 
ATOM     22  H   UNL     1       4.333  -0.868  -1.175  1.00  0.00    +0.173 HD
BRANCH  21  23
ATOM     23  C   UNL     1       4.942   0.145   0.531  1.00  0.00    +0.045 A 
ATOM     24  C   UNL     1       4.627   0.765   1.742  1.00  0.00    +0.026 A 
ATOM     25  C   UNL     1       6.283   0.083   0.129  1.00  0.00    +0.045 A 
ATOM     26  C   UNL     1       5.635   1.316   2.541  1.00  0.00    +0.004 A 
ATOM     27  C   UNL     1       7.295   0.635   0.928  1.00  0.00    +0.054 A 
ATOM     28  C   UNL     1       6.967   1.252   2.135  1.00  0.00    +0.019 A 
ATOM     29  C   UNL     1       8.661   0.564   0.499  1.00  0.00    +0.099 C 
ATOM     30  N   UNL     1       9.759   0.496   0.132  1.00  0.00    -0.192 NA
ENDBRANCH  21  23
ENDBRANCH   1  19
TORSDOF 3
