REMARK SMILES Cc1ccc(C(=O)Nc2cccc(C(F)(F)F)c2)cc1Nc1nc2ccccc2n1-c1cc(NCCC#N)ncn1
REMARK SMILES IDX 21 1 20 3 2 4 3 5 4 6 19 7 5 8 1 9 6 10 7 11 8 12 9 14 10 15
REMARK SMILES IDX 18 16 11 17 13 18 12 19 14 20 15 21 16 22 17 23 22 24 23 25
REMARK SMILES IDX 30 26 24 27 29 28 25 29 28 30 26 31 27 32 31 33 32 34 41 35
REMARK SMILES IDX 33 36 40 37 39 38 34 39 35 41 36 42 37 43 38 44
REMARK H PARENT 21 2 8 13 34 40
ROOT
ATOM      1  N   UNL     1      -0.782  -1.208   0.539  1.00  0.00    -0.325 N 
ATOM      2  H   UNL     1      -1.560  -1.867   0.537  1.00  0.00    +0.170 HD
ENDROOT
BRANCH   1   3
ATOM      3  C   UNL     1       0.494  -1.805   0.469  1.00  0.00    +0.045 A 
ATOM      4  C   UNL     1       0.654  -3.165   0.835  1.00  0.00    -0.027 A 
ATOM      5  C   UNL     1       1.927  -3.764   0.791  1.00  0.00    +0.006 A 
ATOM      6  C   UNL     1       3.047  -3.029   0.412  1.00  0.00    +0.014 A 
ATOM      7  C   UNL     1       1.638  -1.083   0.094  1.00  0.00    +0.040 A 
ATOM      8  C   UNL     1       2.901  -1.684   0.073  1.00  0.00    +0.042 A 
ATOM      9  C   UNL     1      -0.517  -4.008   1.271  1.00  0.00    +0.046 C 
BRANCH   8  10
ATOM     10  C   UNL     1       4.075  -0.872  -0.340  1.00  0.00    +0.255 C 
ATOM     11  O   UNL     1       3.978  -0.160  -1.330  1.00  0.00    -0.269 OA
ATOM     12  N   UNL     1       5.174  -1.008   0.489  1.00  0.00    -0.322 N 
ATOM     13  H   UNL     1       5.043  -1.563   1.326  1.00  0.00    +0.170 HD
BRANCH  12  14
ATOM     14  C   UNL     1       6.443  -0.414   0.335  1.00  0.00    +0.042 A 
ATOM     15  C   UNL     1       7.386  -0.650   1.342  1.00  0.00    +0.026 A 
ATOM     16  C   UNL     1       6.804   0.380  -0.756  1.00  0.00    +0.039 A 
ATOM     17  C   UNL     1       8.666  -0.098   1.266  1.00  0.00    +0.003 A 
ATOM     18  C   UNL     1       8.093   0.938  -0.849  1.00  0.00    +0.058 A 
ATOM     19  C   UNL     1       9.018   0.695   0.176  1.00  0.00    +0.013 A 
BRANCH  18  20
ATOM     20  C   UNL     1       8.451   1.806  -2.029  1.00  0.00    +0.416 C 
ATOM     21  F   UNL     1       7.885   3.043  -1.960  1.00  0.00    -0.166 F 
ATOM     22  F   UNL     1       8.059   1.277  -3.221  1.00  0.00    -0.166 F 
ATOM     23  F   UNL     1       9.793   2.021  -2.149  1.00  0.00    -0.166 F 
ENDBRANCH  18  20
ENDBRANCH  12  14
ENDBRANCH   8  10
ENDBRANCH   1   3
BRANCH   1  24
ATOM     24  C   UNL     1      -1.105   0.111   0.588  1.00  0.00    +0.214 A 
ATOM     25  N   UNL     1      -0.294   1.139   0.706  1.00  0.00    -0.212 NA
ATOM     26  N   UNL     1      -2.439   0.536   0.481  1.00  0.00    -0.262 N 
ATOM     27  C   UNL     1      -1.084   2.246   0.775  1.00  0.00    +0.091 A 
ATOM     28  C   UNL     1      -2.435   1.915   0.693  1.00  0.00    +0.076 A 
ATOM     29  C   UNL     1      -0.695   3.584   0.945  1.00  0.00    +0.031 A 
ATOM     30  C   UNL     1      -3.432   2.893   0.872  1.00  0.00    +0.029 A 
ATOM     31  C   UNL     1      -1.678   4.568   1.072  1.00  0.00    +0.002 A 
ATOM     32  C   UNL     1      -3.026   4.222   1.050  1.00  0.00    +0.002 A 
BRANCH  26  33
ATOM     33  C   UNL     1      -3.557  -0.318   0.197  1.00  0.00    +0.145 A 
ATOM     34  C   UNL     1      -4.705   0.200  -0.376  1.00  0.00    +0.094 A 
ATOM     35  N   UNL     1      -3.424  -1.640   0.461  1.00  0.00    -0.218 NA
ATOM     36  C   UNL     1      -5.743  -0.675  -0.622  1.00  0.00    +0.131 A 
ATOM     37  C   UNL     1      -4.494  -2.400   0.196  1.00  0.00    +0.226 A 
ATOM     38  N   UNL     1      -5.649  -1.976  -0.325  1.00  0.00    -0.219 NA
BRANCH  36  39
ATOM     39  N   UNL     1      -6.933  -0.309  -1.192  1.00  0.00    -0.369 N 
ATOM     40  H   UNL     1      -7.584  -1.084  -1.270  1.00  0.00    +0.162 HD
BRANCH  39  41
ATOM     41  C   UNL     1      -7.297   1.025  -1.625  1.00  0.00    +0.129 C 
BRANCH  41  42
ATOM     42  C   UNL     1      -8.682   1.057  -2.270  1.00  0.00    +0.141 C 
ATOM     43  C   UNL     1      -9.744   0.942  -1.264  1.00  0.00    +0.064 C 
ATOM     44  N   UNL     1     -10.592   0.864  -0.477  1.00  0.00    -0.198 NA
ENDBRANCH  41  42
ENDBRANCH  39  41
ENDBRANCH  36  39
ENDBRANCH  26  33
ENDBRANCH   1  24
TORSDOF 9
