REMARK SMILES CC1(C)CC[C@@]2(CC[C@H]3[C@@H]4CCc5cc(OP(=O)([O-])[O-])ccc5[C@H]4CC[C@@]32C)OC1=O
REMARK SMILES IDX 16 1 15 2 2 3 4 4 30 5 5 6 29 7 31 8 6 9 7 10 27 11 8 12
REMARK SMILES IDX 26 13 9 14 25 15 10 16 24 17 11 18 23 19 12 20 22 21 13 22
REMARK SMILES IDX 21 23 14 24 1 25 3 26 28 27 17 28 18 29 19 30 20 31
REMARK H PARENT
ROOT
ATOM      1  O   UNL     1       7.386   0.417  -1.308  1.00  0.00    -0.466 OA
ENDROOT
BRANCH   1   2
ATOM      2  C   UNL     1       6.035   0.340  -1.118  1.00  0.00    +0.124 A 
ATOM      3  C   UNL     1      -5.123  -1.483   0.749  1.00  0.00    +0.063 C 
ATOM      4  C   UNL     1      -4.572  -0.756  -0.482  1.00  0.00    +0.022 C 
ATOM      5  C   UNL     1      -4.390  -1.076   2.022  1.00  0.00    +0.312 C 
ATOM      6  C   UNL     1      -3.051  -0.788  -0.524  1.00  0.00    +0.050 C 
ATOM      7  O   UNL     1      -3.051  -0.913   1.914  1.00  0.00    -0.458 OA
ATOM      8  O   UNL     1      -4.941  -1.036   3.119  1.00  0.00    -0.252 OA
ATOM      9  C   UNL     1      -2.447  -0.245   0.782  1.00  0.00    +0.118 C 
ATOM     10  C   UNL     1      -2.658   1.297   0.926  1.00  0.00    +0.050 C 
ATOM     11  C   UNL     1      -0.881  -0.368   0.874  1.00  0.00    +0.011 C 
ATOM     12  C   UNL     1      -1.324   1.979   0.571  1.00  0.00    +0.009 C 
ATOM     13  C   UNL     1      -0.231  -1.617   0.253  1.00  0.00    +0.012 C 
ATOM     14  C   UNL     1      -0.446   0.855   0.037  1.00  0.00    +0.003 C 
ATOM     15  C   UNL     1       1.301  -1.488   0.146  1.00  0.00    +0.009 C 
ATOM     16  C   UNL     1       1.072   1.061   0.024  1.00  0.00    +0.001 C 
ATOM     17  C   UNL     1       1.747  -0.201  -0.594  1.00  0.00    +0.023 C 
ATOM     18  C   UNL     1       1.484   2.294  -0.786  1.00  0.00    +0.009 C 
ATOM     19  C   UNL     1       3.253  -0.020  -0.728  1.00  0.00    -0.041 A 
ATOM     20  C   UNL     1       2.986   2.528  -0.655  1.00  0.00    +0.036 C 
ATOM     21  C   UNL     1       4.115  -1.119  -0.877  1.00  0.00    +0.008 A 
ATOM     22  C   UNL     1       3.809   1.275  -0.807  1.00  0.00    -0.041 A 
ATOM     23  C   UNL     1       5.490  -0.939  -1.062  1.00  0.00    +0.047 A 
ATOM     24  C   UNL     1       5.197   1.437  -0.987  1.00  0.00    +0.050 A 
ATOM     25  C   UNL     1      -4.981  -3.008   0.609  1.00  0.00    +0.023 C 
ATOM     26  C   UNL     1      -6.618  -1.138   0.883  1.00  0.00    +0.023 C 
ATOM     27  C   UNL     1      -0.440  -0.283   2.367  1.00  0.00    +0.016 C 
ENDBRANCH   1   2
BRANCH   1  28
ATOM     28  P   UNL     1       8.246   1.812  -1.460  1.00  0.00    +0.114 P 
ATOM     29  O   UNL     1       9.677   1.325  -1.671  1.00  0.00    -0.312 OA
ATOM     30  O   UNL     1       7.651   2.518  -2.676  1.00  0.00    -0.780 OA
ATOM     31  O   UNL     1       8.038   2.555  -0.143  1.00  0.00    -0.780 OA
ENDBRANCH   1  28
TORSDOF 2
