REMARK SMILES CC(=O)c1nn(-c2ccccc2)cc1C(=O)c1nn(-c2ccccc2)cc1C(=O)c1nn(-c2ccccc2)cc1C(=O)c1ccccc1
REMARK SMILES IDX 17 1 18 2 19 3 26 4 27 5 15 6 16 7 14 8 4 9 5 10 6 11 13 12
REMARK SMILES IDX 2 13 3 14 1 15 7 16 8 17 12 18 9 19 11 20 10 21 28 22 29 23
REMARK SMILES IDX 30 24 31 25 40 26 32 27 39 28 41 29 42 30 43 31 44 32 48 33
REMARK SMILES IDX 45 34 47 35 46 36 33 37 34 38 38 39 35 40 37 41 36 42 20 43
REMARK SMILES IDX 21 44 25 45 22 46 24 47 23 48
REMARK H PARENT
ROOT
ATOM      1  C   UNL     1       0.994   0.430  -0.132  1.00  0.00    +0.145 A 
ATOM      2  N   UNL     1       1.518   1.100  -1.179  1.00  0.00    -0.164 NA
ATOM      3  N   UNL     1       0.721   0.797  -2.234  1.00  0.00    -0.239 N 
ATOM      4  C   UNL     1      -0.316  -0.020  -1.858  1.00  0.00    +0.128 A 
ATOM      5  C   UNL     1      -0.176  -0.282  -0.508  1.00  0.00    +0.074 A 
ENDROOT
BRANCH   1   6
ATOM      6  C   UNL     1       1.565   0.542   1.219  1.00  0.00    +0.217 C 
ATOM      7  O   UNL     1       0.856   0.592   2.221  1.00  0.00    -0.287 OA
BRANCH   6   8
ATOM      8  C   UNL     1       3.009   0.729   1.309  1.00  0.00    +0.074 A 
ATOM      9  C   UNL     1       4.076   0.195   0.538  1.00  0.00    +0.139 A 
ATOM     10  N   UNL     1       5.260   0.699   0.930  1.00  0.00    -0.164 NA
ATOM     11  N   UNL     1       4.983   1.491   1.996  1.00  0.00    -0.239 N 
ATOM     12  C   UNL     1       3.636   1.516   2.258  1.00  0.00    +0.128 A 
BRANCH   9  13
ATOM     13  C   UNL     1       4.012  -0.816  -0.528  1.00  0.00    +0.180 C 
ATOM     14  O   UNL     1       3.053  -1.580  -0.641  1.00  0.00    -0.293 OA
ATOM     15  C   UNL     1       5.190  -0.927  -1.464  1.00  0.00    +0.095 C 
ENDBRANCH   9  13
BRANCH  11  16
ATOM     16  C   UNL     1       6.024   2.171   2.689  1.00  0.00    +0.065 A 
ATOM     17  C   UNL     1       7.352   2.021   2.259  1.00  0.00    +0.028 A 
ATOM     18  C   UNL     1       5.749   2.989   3.794  1.00  0.00    +0.028 A 
ATOM     19  C   UNL     1       8.388   2.680   2.925  1.00  0.00    +0.002 A 
ATOM     20  C   UNL     1       6.791   3.645   4.456  1.00  0.00    +0.002 A 
ATOM     21  C   UNL     1       8.107   3.492   4.022  1.00  0.00    +0.000 A 
ENDBRANCH  11  16
ENDBRANCH   6   8
ENDBRANCH   1   6
BRANCH   5  22
ATOM     22  C   UNL     1      -0.996  -1.148   0.330  1.00  0.00    +0.217 C 
ATOM     23  O   UNL     1      -0.511  -1.785   1.260  1.00  0.00    -0.287 OA
BRANCH  22  24
ATOM     24  C   UNL     1      -2.437  -1.210   0.025  1.00  0.00    +0.145 A 
ATOM     25  N   UNL     1      -3.111  -0.192  -0.543  1.00  0.00    -0.164 NA
ATOM     26  C   UNL     1      -3.318  -2.275   0.350  1.00  0.00    +0.072 A 
ATOM     27  N   UNL     1      -4.408  -0.584  -0.584  1.00  0.00    -0.239 N 
ATOM     28  C   UNL     1      -4.567  -1.838  -0.044  1.00  0.00    +0.128 A 
BRANCH  26  29
ATOM     29  C   UNL     1      -2.982  -3.574   0.898  1.00  0.00    +0.196 C 
ATOM     30  O   UNL     1      -2.131  -4.279   0.364  1.00  0.00    -0.288 OA
BRANCH  29  31
ATOM     31  C   UNL     1      -3.728  -4.078   2.086  1.00  0.00    +0.023 A 
ATOM     32  C   UNL     1      -4.337  -3.214   3.006  1.00  0.00    +0.012 A 
ATOM     33  C   UNL     1      -3.795  -5.463   2.293  1.00  0.00    +0.012 A 
ATOM     34  C   UNL     1      -5.024  -3.734   4.106  1.00  0.00    +0.001 A 
ATOM     35  C   UNL     1      -4.483  -5.978   3.393  1.00  0.00    +0.001 A 
ATOM     36  C   UNL     1      -5.100  -5.113   4.296  1.00  0.00    +0.000 A 
ENDBRANCH  29  31
ENDBRANCH  26  29
BRANCH  27  37
ATOM     37  C   UNL     1      -5.407   0.265  -1.139  1.00  0.00    +0.065 A 
ATOM     38  C   UNL     1      -6.750  -0.133  -1.199  1.00  0.00    +0.028 A 
ATOM     39  C   UNL     1      -5.040   1.526  -1.638  1.00  0.00    +0.028 A 
ATOM     40  C   UNL     1      -7.709   0.723  -1.752  1.00  0.00    +0.002 A 
ATOM     41  C   UNL     1      -6.004   2.374  -2.187  1.00  0.00    +0.002 A 
ATOM     42  C   UNL     1      -7.336   1.972  -2.244  1.00  0.00    +0.000 A 
ENDBRANCH  27  37
ENDBRANCH  22  24
ENDBRANCH   5  22
BRANCH   3  43
ATOM     43  C   UNL     1       1.007   1.314  -3.529  1.00  0.00    +0.065 A 
ATOM     44  C   UNL     1       2.124   2.145  -3.710  1.00  0.00    +0.028 A 
ATOM     45  C   UNL     1       0.194   1.009  -4.630  1.00  0.00    +0.028 A 
ATOM     46  C   UNL     1       2.423   2.661  -4.973  1.00  0.00    +0.002 A 
ATOM     47  C   UNL     1       0.501   1.529  -5.892  1.00  0.00    +0.002 A 
ATOM     48  C   UNL     1       1.612   2.353  -6.062  1.00  0.00    +0.000 A 
ENDBRANCH   3  43
TORSDOF 10
