REMARK SMILES c1ccc(CCNc2nc3ccccc3c3cn(-c4ccccc4)nc23)cc1
REMARK SMILES IDX 6 1 5 2 4 3 1 4 2 5 28 6 3 7 27 8 7 9 8 11 9 12 26 13 10 14
REMARK SMILES IDX 25 15 16 16 11 17 15 18 18 19 17 20 12 21 14 22 13 23 19 24
REMARK SMILES IDX 20 25 24 26 21 27 23 28 22 29
REMARK H PARENT 7 10
ROOT
ATOM      1  C   UNL     1       2.434   0.646   2.338  1.00  0.00    +0.119 C 
ENDROOT
BRANCH   1   2
ATOM      2  C   UNL     1       3.448   0.991   1.239  1.00  0.00    +0.056 C 
BRANCH   2   3
ATOM      3  C   UNL     1       3.999  -0.229   0.535  1.00  0.00    -0.046 A 
ATOM      4  C   UNL     1       4.991  -2.515  -0.751  1.00  0.00    +0.000 A 
ATOM      5  C   UNL     1       5.621  -2.029   0.394  1.00  0.00    +0.000 A 
ATOM      6  C   UNL     1       3.866  -1.865  -1.254  1.00  0.00    +0.000 A 
ATOM      7  C   UNL     1       5.126  -0.893   1.036  1.00  0.00    +0.004 A 
ATOM      8  C   UNL     1       3.371  -0.727  -0.615  1.00  0.00    +0.004 A 
ENDBRANCH   2   3
ENDBRANCH   1   2
BRANCH   1   9
ATOM      9  N   UNL     1       1.209   0.095   1.800  1.00  0.00    -0.368 N 
ATOM     10  H   UNL     1       1.136  -0.900   1.620  1.00  0.00    +0.162 HD
BRANCH   9  11
ATOM     11  C   UNL     1       0.241   0.894   1.236  1.00  0.00    +0.155 A 
ATOM     12  N   UNL     1       0.297   2.269   1.312  1.00  0.00    -0.229 NA
ATOM     13  C   UNL     1      -0.877   0.375   0.524  1.00  0.00    +0.136 A 
ATOM     14  C   UNL     1      -0.648   3.094   0.760  1.00  0.00    +0.073 A 
ATOM     15  N   UNL     1      -1.230  -0.894   0.246  1.00  0.00    -0.164 NA
ATOM     16  C   UNL     1      -1.838   1.272  -0.039  1.00  0.00    +0.034 A 
ATOM     17  C   UNL     1      -0.485   4.462   0.907  1.00  0.00    +0.029 A 
ATOM     18  C   UNL     1      -1.801   2.680   0.034  1.00  0.00    +0.011 A 
ATOM     19  N   UNL     1      -2.387  -0.810  -0.464  1.00  0.00    -0.240 N 
ATOM     20  C   UNL     1      -2.783   0.498  -0.656  1.00  0.00    +0.124 A 
ATOM     21  C   UNL     1      -1.394   5.391   0.378  1.00  0.00    +0.002 A 
ATOM     22  C   UNL     1      -2.730   3.600  -0.507  1.00  0.00    +0.011 A 
ATOM     23  C   UNL     1      -2.515   4.961  -0.328  1.00  0.00    +0.001 A 
BRANCH  19  24
ATOM     24  C   UNL     1      -3.040  -1.992  -0.920  1.00  0.00    +0.065 A 
ATOM     25  C   UNL     1      -4.233  -1.930  -1.655  1.00  0.00    +0.028 A 
ATOM     26  C   UNL     1      -2.479  -3.246  -0.628  1.00  0.00    +0.028 A 
ATOM     27  C   UNL     1      -4.850  -3.108  -2.089  1.00  0.00    +0.002 A 
ATOM     28  C   UNL     1      -3.102  -4.417  -1.065  1.00  0.00    +0.002 A 
ATOM     29  C   UNL     1      -4.286  -4.348  -1.795  1.00  0.00    +0.000 A 
ENDBRANCH  19  24
ENDBRANCH   9  11
ENDBRANCH   1   9
TORSDOF 5
