REMARK SMILES Cn1cccc1-c1nc2cc(C(=O)N[C@@H](Cc3c[nH]c4ccc([O-])cc34)c3cscn3)ccc2n1C1CCCCC1
REMARK SMILES IDX 12 1 13 2 14 3 11 5 7 6 8 7 35 8 9 9 34 10 10 11 33 12 32 13
REMARK SMILES IDX 6 14 2 15 3 16 4 17 5 18 1 19 36 20 37 21 41 22 38 23 40 24
REMARK SMILES IDX 39 25 15 26 16 27 17 28 18 29 26 30 19 31 25 32 20 33 23 34
REMARK SMILES IDX 21 35 22 36 24 38 27 39 28 40 31 41 29 42 30 43
REMARK H PARENT 14 4 19 37
ROOT
ATOM      1  C   UNL     1       1.518  -2.586  -1.621  1.00  0.00    +0.251 C 
ATOM      2  O   UNL     1       1.181  -3.540  -2.313  1.00  0.00    -0.269 OA
ATOM      3  N   UNL     1       2.807  -2.357  -1.200  1.00  0.00    -0.343 N 
ATOM      4  H   UNL     1       2.996  -1.568  -0.594  1.00  0.00    +0.164 HD
ENDROOT
BRANCH   1   5
ATOM      5  C   UNL     1       0.503  -1.612  -1.134  1.00  0.00    +0.042 A 
ATOM      6  C   UNL     1      -3.497  -0.236   0.439  1.00  0.00    +0.158 A 
ATOM      7  N   UNL     1      -3.038  -1.397   0.017  1.00  0.00    -0.227 NA
ATOM      8  N   UNL     1      -2.507   0.725   0.441  1.00  0.00    -0.320 N 
ATOM      9  C   UNL     1      -1.735  -1.177  -0.343  1.00  0.00    +0.090 A 
ATOM     10  C   UNL     1      -1.377   0.147  -0.113  1.00  0.00    +0.069 A 
ATOM     11  C   UNL     1      -0.793  -2.077  -0.865  1.00  0.00    +0.044 A 
ATOM     12  C   UNL     1      -0.101   0.638  -0.410  1.00  0.00    +0.029 A 
ATOM     13  C   UNL     1       0.826  -0.265  -0.937  1.00  0.00    +0.016 A 
BRANCH   6  14
ATOM     14  C   UNL     1      -4.850  -0.094   0.878  1.00  0.00    +0.084 A 
ATOM     15  N   UNL     1      -5.381  -0.817   1.924  1.00  0.00    -0.348 N 
ATOM     16  C   UNL     1      -6.695  -0.464   2.112  1.00  0.00    +0.086 A 
ATOM     17  C   UNL     1      -7.029   0.458   1.146  1.00  0.00    +0.020 A 
ATOM     18  C   UNL     1      -5.874   0.676   0.356  1.00  0.00    +0.032 A 
ATOM     19  C   UNL     1      -4.669  -1.797   2.717  1.00  0.00    +0.149 C 
ENDBRANCH   6  14
BRANCH   8  20
ATOM     20  C   UNL     1      -2.531   2.086   0.973  1.00  0.00    +0.089 C 
ATOM     21  C   UNL     1      -3.126   3.096  -0.019  1.00  0.00    +0.025 C 
ATOM     22  C   UNL     1      -3.144   2.230   2.376  1.00  0.00    +0.025 C 
ATOM     23  C   UNL     1      -3.015   4.525   0.510  1.00  0.00    +0.002 C 
ATOM     24  C   UNL     1      -3.011   3.665   2.888  1.00  0.00    +0.002 C 
ATOM     25  C   UNL     1      -3.618   4.664   1.906  1.00  0.00    +0.000 C 
ENDBRANCH   8  20
ENDBRANCH   1   5
BRANCH   3  26
ATOM     26  C   UNL     1       3.952  -3.147  -1.647  1.00  0.00    +0.136 C 
BRANCH  26  27
ATOM     27  C   UNL     1       5.280  -2.360  -1.537  1.00  0.00    +0.069 C 
BRANCH  27  28
ATOM     28  C   UNL     1       5.263  -1.061  -2.286  1.00  0.00    -0.020 A 
ATOM     29  C   UNL     1       5.574  -0.867  -3.619  1.00  0.00    +0.087 A 
ATOM     30  C   UNL     1       4.868   0.213  -1.761  1.00  0.00    +0.002 A 
ATOM     31  N   UNL     1       5.352   0.451  -3.919  1.00  0.00    -0.361 N 
ATOM     32  C   UNL     1       4.441   0.674  -0.492  1.00  0.00    +0.002 A 
ATOM     33  C   UNL     1       4.889   1.121  -2.814  1.00  0.00    +0.046 A 
ATOM     34  C   UNL     1       3.959   1.980  -0.267  1.00  0.00    -0.108 A 
ATOM     35  C   UNL     1       4.482   2.445  -2.656  1.00  0.00    +0.026 A 
ATOM     36  C   UNL     1       4.014   2.830  -1.386  1.00  0.00    -0.006 A 
ATOM     37  H   UNL     1       5.472   0.873  -4.827  1.00  0.00    +0.166 HD
ATOM     38  O   UNL     1       3.495   2.353   0.860  1.00  0.00    -0.872 OA
ENDBRANCH  27  28
ENDBRANCH  26  27
BRANCH  26  39
ATOM     39  C   UNL     1       4.043  -4.429  -0.844  1.00  0.00    +0.074 A 
ATOM     40  C   UNL     1       3.485  -4.691   0.399  1.00  0.00    +0.092 A 
ATOM     41  N   UNL     1       4.793  -5.485  -1.363  1.00  0.00    -0.248 NA
ATOM     42  S   UNL     1       3.869  -6.280   0.909  1.00  0.00    -0.130 S 
ATOM     43  C   UNL     1       4.755  -6.506  -0.538  1.00  0.00    +0.175 A 
ENDBRANCH  26  39
ENDBRANCH   3  26
TORSDOF 7
