REMARK SMILES C[n+]1c(COc2ccc(/C=N/[NH+]=C(N)N)cc2)cn2cc(C(F)(F)F)ccc21
REMARK SMILES IDX 5 1 4 2 3 3 2 4 28 5 18 6 27 7 19 8 26 9 20 10 21 11 1 12
REMARK SMILES IDX 22 13 23 14 24 15 25 16 6 17 7 18 17 19 8 20 16 21 9 22
REMARK SMILES IDX 10 23 11 24 12 25 13 26 14 27 15 28
REMARK H PARENT 12 29 14 30 14 31 15 32 15 33
ROOT
ATOM      1  O   UNL     1      -0.400  -0.143  -0.182  1.00  0.00    -0.485 OA
ENDROOT
BRANCH   1   2
ATOM      2  C   UNL     1      -1.295  -0.291  -1.284  1.00  0.00    +0.313 C 
BRANCH   2   3
ATOM      3  C   UNL     1      -2.676  -0.472  -0.751  1.00  0.00    +0.181 A 
ATOM      4  N   UNL     1      -3.075  -1.499   0.132  1.00  0.00    -0.227 N 
ATOM      5  C   UNL     1      -4.372  -1.347   0.426  1.00  0.00    +0.286 A 
ATOM      6  C   UNL     1      -3.813   0.277  -0.982  1.00  0.00    +0.256 A 
ATOM      7  C   UNL     1      -5.336  -2.145   1.351  1.00  0.00    +0.100 C 
ATOM      8  N   UNL     1      -4.838  -0.284  -0.252  1.00  0.00    -0.202 N 
ATOM      9  C   UNL     1      -6.604  -1.701   1.398  1.00  0.00    +0.025 C 
ATOM     10  C   UNL     1      -6.154   0.147  -0.181  1.00  0.00    +0.219 C 
ATOM     11  C   UNL     1      -7.015  -0.528   0.610  1.00  0.00    +0.095 C 
ATOM     12  C   UNL     1      -2.211  -2.531   0.695  1.00  0.00    +0.297 C 
BRANCH  11  13
ATOM     13  C   UNL     1      -8.452  -0.098   0.720  1.00  0.00    +0.419 C 
ATOM     14  F   UNL     1      -8.716   0.990  -0.044  1.00  0.00    -0.166 F 
ATOM     15  F   UNL     1      -8.773   0.221   1.996  1.00  0.00    -0.166 F 
ATOM     16  F   UNL     1      -9.292  -1.082   0.322  1.00  0.00    -0.166 F 
ENDBRANCH  11  13
ENDBRANCH   2   3
ENDBRANCH   1   2
BRANCH   1  17
ATOM     17  C   UNL     1       0.915   0.099  -0.471  1.00  0.00    +0.120 A 
ATOM     18  C   UNL     1       1.494   0.096  -1.741  1.00  0.00    +0.047 A 
ATOM     19  C   UNL     1       1.717   0.363   0.644  1.00  0.00    +0.047 A 
ATOM     20  C   UNL     1       2.863   0.361  -1.892  1.00  0.00    +0.013 A 
ATOM     21  C   UNL     1       3.083   0.630   0.500  1.00  0.00    +0.013 A 
ATOM     22  C   UNL     1       3.656   0.630  -0.772  1.00  0.00    -0.004 A 
BRANCH  22  23
ATOM     23  C   UNL     1       5.094   0.910  -0.969  1.00  0.00    +0.158 C 
ATOM     24  N   UNL     1       5.895   1.179   0.018  1.00  0.00    -0.121 NA
BRANCH  24  25
ATOM     25  N   UNL     1       7.192   1.413  -0.350  1.00  0.00    -0.157 N 
ATOM     26  C   UNL     1       8.103   1.711   0.624  1.00  0.00    +0.362 C 
ATOM     27  N   UNL     1       9.383   1.947   0.313  1.00  0.00    -0.289 N 
ATOM     28  N   UNL     1       7.718   1.769   1.901  1.00  0.00    -0.289 N 
ATOM     29  H   UNL     1       7.512   1.378  -1.314  1.00  0.00    +0.295 HD
ATOM     30  H   UNL     1      10.060   2.169   1.032  1.00  0.00    +0.256 HD
ATOM     31  H   UNL     1       9.720   1.915  -0.640  1.00  0.00    +0.256 HD
ATOM     32  H   UNL     1       8.341   1.984   2.664  1.00  0.00    +0.256 HD
ATOM     33  H   UNL     1       6.739   1.584   2.091  1.00  0.00    +0.256 HD
ENDBRANCH  24  25
ENDBRANCH  22  23
ENDBRANCH   1  17
TORSDOF 6
