REMARK SMILES O=C(Nc1ccc(Cl)c(-c2ccnc3c(-c4cn[n-]c4)cnn23)c1)c1cccc(C(F)(F)F)c1
REMARK SMILES IDX 1 1 2 2 3 3 25 5 26 6 34 7 27 8 29 9 28 10 30 11 31 12 32 13
REMARK SMILES IDX 33 14 4 15 5 16 24 17 6 18 9 19 7 20 8 21 10 22 11 23 23 24
REMARK SMILES IDX 12 25 22 26 14 27 13 28 21 29 15 30 16 31 17 32 20 33 18 34
REMARK SMILES IDX 19 35
REMARK H PARENT 3 4
ROOT
ATOM      1  O   UNL     1      -3.951  -2.141   0.281  1.00  0.00    -0.269 OA
ATOM      2  C   UNL     1      -3.399  -1.100  -0.056  1.00  0.00    +0.255 C 
ATOM      3  N   UNL     1      -2.081  -0.750   0.167  1.00  0.00    -0.322 N 
ATOM      4  H   UNL     1      -1.812   0.201  -0.050  1.00  0.00    +0.170 HD
ENDROOT
BRANCH   2   5
ATOM      5  C   UNL     1      -4.218  -0.058  -0.740  1.00  0.00    +0.040 A 
ATOM      6  C   UNL     1      -3.680   0.768  -1.734  1.00  0.00    +0.014 A 
ATOM      7  C   UNL     1      -5.571   0.062  -0.394  1.00  0.00    +0.027 A 
ATOM      8  C   UNL     1      -4.483   1.725  -2.356  1.00  0.00    +0.001 A 
ATOM      9  C   UNL     1      -6.385   1.027  -1.009  1.00  0.00    +0.056 A 
ATOM     10  C   UNL     1      -5.826   1.855  -1.996  1.00  0.00    +0.013 A 
BRANCH   9  11
ATOM     11  C   UNL     1      -7.844   1.141  -0.644  1.00  0.00    +0.416 C 
ATOM     12  F   UNL     1      -8.088   0.875   0.670  1.00  0.00    -0.166 F 
ATOM     13  F   UNL     1      -8.626   0.281  -1.353  1.00  0.00    -0.166 F 
ATOM     14  F   UNL     1      -8.357   2.383  -0.869  1.00  0.00    -0.166 F 
ENDBRANCH   9  11
ENDBRANCH   2   5
BRANCH   3  15
ATOM     15  C   UNL     1      -1.058  -1.561   0.700  1.00  0.00    +0.042 A 
ATOM     16  C   UNL     1      -1.210  -2.913   1.000  1.00  0.00    +0.028 A 
ATOM     17  C   UNL     1       0.189  -0.957   0.908  1.00  0.00    +0.038 A 
ATOM     18  C   UNL     1      -0.128  -3.654   1.487  1.00  0.00    +0.023 A 
ATOM     19  C   UNL     1       1.290  -1.684   1.403  1.00  0.00    +0.021 A 
ATOM     20  C   UNL     1       1.116  -3.048   1.683  1.00  0.00    +0.050 A 
ATOM     21 Cl   UNL     1       2.405  -4.048   2.259  1.00  0.00    -0.084 Cl
BRANCH  19  22
ATOM     22  C   UNL     1       2.567  -0.962   1.592  1.00  0.00    +0.077 C 
ATOM     23  C   UNL     1       3.064  -0.804   2.833  1.00  0.00    +0.049 C 
ATOM     24  N   UNL     1       3.248  -0.384   0.501  1.00  0.00    -0.214 N 
ATOM     25  C   UNL     1       4.333  -0.039   2.931  1.00  0.00    +0.116 C 
ATOM     26  N   UNL     1       2.883  -0.405  -0.815  1.00  0.00    -0.174 NA
ATOM     27  C   UNL     1       4.429   0.348   0.702  1.00  0.00    +0.163 A 
ATOM     28  N   UNL     1       4.976   0.508   1.948  1.00  0.00    -0.236 NA
ATOM     29  C   UNL     1       3.833   0.302  -1.430  1.00  0.00    +0.146 A 
ATOM     30  C   UNL     1       4.798   0.798  -0.545  1.00  0.00    +0.046 A 
BRANCH  30  31
ATOM     31  C   UNL     1       6.004   1.677  -0.925  1.00  0.00    -0.017 A 
ATOM     32  C   UNL     1       6.987   2.216  -0.136  1.00  0.00    +0.093 A 
ATOM     33  C   UNL     1       6.381   2.142  -2.161  1.00  0.00    -0.114 A 
ATOM     34  N   UNL     1       7.874   2.952  -0.833  1.00  0.00    -0.374 NA
ATOM     35  N   UNL     1       7.486   2.904  -2.125  1.00  0.00    -0.581 NA
ENDBRANCH  30  31
ENDBRANCH  19  22
ENDBRANCH   3  15
TORSDOF 5
