REMARK SMILES Cc1ccc(NC(=O)Nc2cccc(-c3cn4ccnc4c(NCc4ccncc4)n3)c2)cc1C(F)(F)F
REMARK SMILES IDX 10 1 11 2 12 3 13 4 14 5 32 6 9 7 6 8 7 9 8 10 5 13 2 14
REMARK SMILES IDX 3 15 34 16 4 17 33 18 1 19 35 20 36 21 37 22 38 23 15 24
REMARK SMILES IDX 16 25 31 26 17 27 22 28 18 29 21 30 23 31 19 32 20 33 24 35
REMARK SMILES IDX 25 36 26 37 30 38 27 39 29 40 28 41
REMARK H PARENT 6 11 9 12 23 34
ROOT
ATOM      1  C   UNL     1      -1.006   0.150  -2.536  1.00  0.00    +0.043 A 
ATOM      2  C   UNL     1      -0.380   0.002  -3.779  1.00  0.00    +0.026 A 
ATOM      3  C   UNL     1       1.008   0.089  -3.888  1.00  0.00    +0.003 A 
ATOM      4  C   UNL     1       1.782   0.325  -2.753  1.00  0.00    +0.010 A 
ATOM      5  C   UNL     1       1.182   0.479  -1.495  1.00  0.00    +0.004 A 
ATOM      6  C   UNL     1      -0.218   0.371  -1.402  1.00  0.00    +0.036 A 
ENDROOT
BRANCH   1   7
ATOM      7  N   UNL     1      -2.414   0.044  -2.507  1.00  0.00    -0.308 N 
ATOM      8  N   UNL     1      -4.561  -0.063  -1.753  1.00  0.00    -0.308 N 
ATOM      9  C   UNL     1      -3.258   0.294  -1.434  1.00  0.00    +0.323 C 
ATOM     10  O   UNL     1      -2.905   0.766  -0.361  1.00  0.00    -0.248 OA
ATOM     11  H   UNL     1      -4.684  -0.579  -2.610  1.00  0.00    +0.171 HD
ATOM     12  H   UNL     1      -2.856  -0.159  -3.389  1.00  0.00    +0.171 HD
BRANCH   8  13
ATOM     13  C   UNL     1      -5.725   0.130  -0.979  1.00  0.00    +0.043 A 
ATOM     14  C   UNL     1      -8.150   0.430   0.445  1.00  0.00    -0.039 A 
ATOM     15  C   UNL     1      -8.114  -0.260  -0.774  1.00  0.00    +0.006 A 
ATOM     16  C   UNL     1      -6.958   0.991   0.952  1.00  0.00    +0.060 A 
ATOM     17  C   UNL     1      -6.915  -0.407  -1.476  1.00  0.00    +0.026 A 
ATOM     18  C   UNL     1      -5.757   0.828   0.229  1.00  0.00    +0.039 A 
ATOM     19  C   UNL     1      -9.462   0.574   1.169  1.00  0.00    +0.045 C 
BRANCH  16  20
ATOM     20  C   UNL     1      -6.938   1.757   2.258  1.00  0.00    +0.416 C 
ATOM     21  F   UNL     1      -7.251   0.972   3.328  1.00  0.00    -0.166 F 
ATOM     22  F   UNL     1      -5.732   2.317   2.555  1.00  0.00    -0.166 F 
ATOM     23  F   UNL     1      -7.831   2.786   2.278  1.00  0.00    -0.166 F 
ENDBRANCH  16  20
ENDBRANCH   8  13
ENDBRANCH   1   7
BRANCH   5  24
ATOM     24  C   UNL     1       2.032   0.715  -0.301  1.00  0.00    +0.089 C 
ATOM     25  C   UNL     1       1.613   1.557   0.669  1.00  0.00    +0.122 C 
ATOM     26  N   UNL     1       3.263   0.064  -0.255  1.00  0.00    -0.226 NA
ATOM     27  N   UNL     1       2.433   1.761   1.757  1.00  0.00    -0.302 N 
ATOM     28  C   UNL     1       4.058   0.244   0.776  1.00  0.00    +0.170 C 
ATOM     29  C   UNL     1       2.300   2.528   2.881  1.00  0.00    +0.113 A 
ATOM     30  C   UNL     1       3.642   1.132   1.846  1.00  0.00    +0.180 A 
ATOM     31  N   UNL     1       5.270  -0.399   0.839  1.00  0.00    -0.363 N 
ATOM     32  C   UNL     1       3.458   2.314   3.600  1.00  0.00    +0.132 A 
ATOM     33  N   UNL     1       4.297   1.440   2.947  1.00  0.00    -0.234 NA
ATOM     34  H   UNL     1       5.838  -0.223   1.662  1.00  0.00    +0.162 HD
BRANCH  31  35
ATOM     35  C   UNL     1       5.753  -1.312  -0.158  1.00  0.00    +0.150 C 
BRANCH  35  36
ATOM     36  C   UNL     1       7.113  -1.822   0.240  1.00  0.00    -0.026 A 
ATOM     37  C   UNL     1       8.271  -1.126  -0.119  1.00  0.00    +0.025 A 
ATOM     38  C   UNL     1       7.244  -2.975   1.020  1.00  0.00    +0.025 A 
ATOM     39  C   UNL     1       9.498  -1.622   0.293  1.00  0.00    +0.111 A 
ATOM     40  C   UNL     1       8.515  -3.390   1.383  1.00  0.00    +0.111 A 
ATOM     41  N   UNL     1       9.646  -2.741   1.032  1.00  0.00    -0.265 NA
ENDBRANCH  35  36
ENDBRANCH  31  35
ENDBRANCH   5  24
TORSDOF 6
