REMARK SMILES O=C(Nc1cccc(C(F)(F)F)c1)c1cc(N2CCC([NH+]3CCCCC3)CC2)cc(C(F)(F)F)c1
REMARK SMILES IDX 14 1 15 2 16 3 29 4 30 5 35 6 2 7 1 8 3 9 4 11 5 12 13 13
REMARK SMILES IDX 6 14 8 15 7 16 9 17 10 18 11 19 12 20 17 21 18 22 28 23
REMARK SMILES IDX 19 24 27 25 20 26 21 27 22 28 26 29 23 30 25 31 24 32 31 34
REMARK SMILES IDX 32 35 33 36 34 37
REMARK H PARENT 3 10 21 33
ROOT
ATOM      1  C   UNL     1       2.520  -1.184   0.289  1.00  0.00    +0.042 A 
ATOM      2  C   UNL     1       1.176  -0.839   0.067  1.00  0.00    +0.039 A 
ATOM      3  C   UNL     1       0.110  -1.606   0.562  1.00  0.00    +0.038 A 
ATOM      4  C   UNL     1       0.453  -2.745   1.306  1.00  0.00    +0.039 A 
ATOM      5  C   UNL     1       1.791  -3.123   1.539  1.00  0.00    +0.058 A 
ATOM      6  C   UNL     1       2.825  -2.339   1.010  1.00  0.00    +0.027 A 
ENDROOT
BRANCH   1   7
ATOM      7  C   UNL     1       3.570  -0.304  -0.303  1.00  0.00    +0.255 C 
ATOM      8  O   UNL     1       3.285   0.312  -1.324  1.00  0.00    -0.269 OA
ATOM      9  N   UNL     1       4.761  -0.240   0.396  1.00  0.00    -0.322 N 
ATOM     10  H   UNL     1       4.808  -0.713   1.289  1.00  0.00    +0.170 HD
BRANCH   9  11
ATOM     11  C   UNL     1       5.927   0.467   0.031  1.00  0.00    +0.042 A 
ATOM     12  C   UNL     1       7.000   0.438   0.931  1.00  0.00    +0.026 A 
ATOM     13  C   UNL     1       6.069   1.177  -1.163  1.00  0.00    +0.039 A 
ATOM     14  C   UNL     1       8.190   1.112   0.646  1.00  0.00    +0.003 A 
ATOM     15  C   UNL     1       7.264   1.859  -1.464  1.00  0.00    +0.058 A 
ATOM     16  C   UNL     1       8.321   1.822  -0.545  1.00  0.00    +0.013 A 
BRANCH  15  17
ATOM     17  C   UNL     1       7.378   2.629  -2.757  1.00  0.00    +0.416 C 
ATOM     18  F   UNL     1       6.566   3.722  -2.783  1.00  0.00    -0.166 F 
ATOM     19  F   UNL     1       8.635   3.094  -3.002  1.00  0.00    -0.166 F 
ATOM     20  F   UNL     1       7.040   1.883  -3.845  1.00  0.00    -0.166 F 
ENDBRANCH  15  17
ENDBRANCH   9  11
ENDBRANCH   1   7
BRANCH   3  21
ATOM     21  N   UNL     1      -1.216  -1.260   0.318  1.00  0.00    -0.371 N 
ATOM     22  C   UNL     1      -2.258  -1.649   1.267  1.00  0.00    +0.122 C 
ATOM     23  C   UNL     1      -1.554  -0.454  -0.854  1.00  0.00    +0.122 C 
ATOM     24  C   UNL     1      -3.432  -0.681   1.172  1.00  0.00    +0.086 C 
ATOM     25  C   UNL     1      -2.956  -0.792  -1.351  1.00  0.00    +0.086 C 
ATOM     26  C   UNL     1      -4.010  -0.713  -0.241  1.00  0.00    +0.187 C 
BRANCH  26  27
ATOM     27  N   UNL     1      -4.989   0.444  -0.497  1.00  0.00    -0.332 N 
ATOM     28  C   UNL     1      -6.256   0.333   0.332  1.00  0.00    +0.262 C 
ATOM     29  C   UNL     1      -4.398   1.839  -0.414  1.00  0.00    +0.262 C 
ATOM     30  C   UNL     1      -7.283   1.335  -0.180  1.00  0.00    +0.062 C 
ATOM     31  C   UNL     1      -5.416   2.845  -0.936  1.00  0.00    +0.062 C 
ATOM     32  C   UNL     1      -6.735   2.758  -0.176  1.00  0.00    +0.012 C 
ATOM     33  H   UNL     1      -5.292   0.321  -1.473  1.00  0.00    +0.348 HD
ENDBRANCH  26  27
ENDBRANCH   3  21
BRANCH   5  34
ATOM     34  C   UNL     1       2.098  -4.388   2.304  1.00  0.00    +0.416 C 
ATOM     35  F   UNL     1       3.306  -4.346   2.930  1.00  0.00    -0.166 F 
ATOM     36  F   UNL     1       1.181  -4.650   3.276  1.00  0.00    -0.166 F 
ATOM     37  F   UNL     1       2.122  -5.483   1.500  1.00  0.00    -0.166 F 
ENDBRANCH   5  34
TORSDOF 6
