REMARK SMILES O=C(Nc1cccc(Oc2ccccc2)c1)Nc1cccc(-c2cn3ccnc3c(NCc3ccncc3)n2)c1
REMARK SMILES IDX 18 1 19 2 20 3 21 4 22 5 40 6 17 7 1 8 2 9 3 10 4 13 5 14
REMARK SMILES IDX 16 15 6 16 8 17 7 18 9 19 10 20 11 21 15 22 12 23 14 24
REMARK SMILES IDX 13 25 23 26 24 27 39 28 25 29 30 30 26 31 29 32 31 33 27 34
REMARK SMILES IDX 28 35 32 37 33 38 34 39 38 40 35 41 37 42 36 43
REMARK H PARENT 3 11 17 12 31 36
ROOT
ATOM      1  C   UNL     1       0.495   1.472   0.367  1.00  0.00    +0.043 A 
ATOM      2  C   UNL     1       0.189   2.709   0.947  1.00  0.00    +0.026 A 
ATOM      3  C   UNL     1      -1.114   3.205   0.916  1.00  0.00    +0.003 A 
ATOM      4  C   UNL     1      -2.124   2.467   0.300  1.00  0.00    +0.010 A 
ATOM      5  C   UNL     1      -1.847   1.227  -0.292  1.00  0.00    +0.004 A 
ATOM      6  C   UNL     1      -0.530   0.735  -0.234  1.00  0.00    +0.036 A 
ENDROOT
BRANCH   1   7
ATOM      7  N   UNL     1       1.836   1.038   0.446  1.00  0.00    -0.308 N 
ATOM      8  O   UNL     1       1.831  -0.797  -0.967  1.00  0.00    -0.248 OA
ATOM      9  C   UNL     1       2.404  -0.073  -0.164  1.00  0.00    +0.323 C 
ATOM     10  N   UNL     1       3.715  -0.237   0.264  1.00  0.00    -0.308 N 
ATOM     11  H   UNL     1       4.021   0.363   1.013  1.00  0.00    +0.171 HD
ATOM     12  H   UNL     1       2.465   1.647   0.945  1.00  0.00    +0.171 HD
BRANCH  10  13
ATOM     13  C   UNL     1       4.656  -1.192  -0.177  1.00  0.00    +0.046 A 
ATOM     14  C   UNL     1       4.419  -2.115  -1.199  1.00  0.00    +0.026 A 
ATOM     15  C   UNL     1       5.905  -1.194   0.459  1.00  0.00    +0.073 A 
ATOM     16  C   UNL     1       5.407  -3.033  -1.572  1.00  0.00    +0.006 A 
ATOM     17  C   UNL     1       6.899  -2.097   0.066  1.00  0.00    +0.129 A 
ATOM     18  C   UNL     1       6.645  -3.031  -0.935  1.00  0.00    +0.047 A 
BRANCH  17  19
ATOM     19  O   UNL     1       8.129  -2.159   0.681  1.00  0.00    -0.457 OA
BRANCH  19  20
ATOM     20  C   UNL     1       8.797  -0.972   0.875  1.00  0.00    +0.127 A 
ATOM     21  C   UNL     1       9.374  -0.766   2.129  1.00  0.00    +0.047 A 
ATOM     22  C   UNL     1       8.967  -0.028  -0.141  1.00  0.00    +0.047 A 
ATOM     23  C   UNL     1      10.090   0.404   2.381  1.00  0.00    +0.004 A 
ATOM     24  C   UNL     1       9.684   1.142   0.114  1.00  0.00    +0.004 A 
ATOM     25  C   UNL     1      10.241   1.360   1.375  1.00  0.00    +0.000 A 
ENDBRANCH  19  20
ENDBRANCH  17  19
ENDBRANCH  10  13
ENDBRANCH   1   7
BRANCH   5  26
ATOM     26  C   UNL     1      -2.946   0.456  -0.928  1.00  0.00    +0.089 C 
ATOM     27  C   UNL     1      -2.712  -0.239  -2.062  1.00  0.00    +0.122 C 
ATOM     28  N   UNL     1      -4.199   0.515  -0.323  1.00  0.00    -0.226 NA
ATOM     29  N   UNL     1      -3.758  -0.933  -2.630  1.00  0.00    -0.302 N 
ATOM     30  C   UNL     1      -5.209  -0.141  -0.849  1.00  0.00    +0.170 C 
ATOM     31  C   UNL     1      -3.846  -1.716  -3.748  1.00  0.00    +0.113 A 
ATOM     32  C   UNL     1      -5.000  -0.910  -2.062  1.00  0.00    +0.180 A 
ATOM     33  N   UNL     1      -6.448  -0.100  -0.259  1.00  0.00    -0.363 N 
ATOM     34  C   UNL     1      -5.161  -2.132  -3.791  1.00  0.00    +0.132 A 
ATOM     35  N   UNL     1      -5.880  -1.624  -2.735  1.00  0.00    -0.234 NA
ATOM     36  H   UNL     1      -7.187  -0.632  -0.709  1.00  0.00    +0.162 HD
BRANCH  33  37
ATOM     37  C   UNL     1      -6.741   0.612   0.953  1.00  0.00    +0.150 C 
BRANCH  37  38
ATOM     38  C   UNL     1      -8.196   0.436   1.302  1.00  0.00    -0.026 A 
ATOM     39  C   UNL     1      -8.616  -0.628   2.106  1.00  0.00    +0.025 A 
ATOM     40  C   UNL     1      -9.164   1.305   0.788  1.00  0.00    +0.025 A 
ATOM     41  C   UNL     1      -9.969  -0.761   2.377  1.00  0.00    +0.111 A 
ATOM     42  C   UNL     1     -10.493   1.087   1.117  1.00  0.00    +0.111 A 
ATOM     43  N   UNL     1     -10.916   0.076   1.904  1.00  0.00    -0.265 NA
ENDBRANCH  37  38
ENDBRANCH  33  37
ENDBRANCH   5  26
TORSDOF 7
