REMARK SMILES Cc1cc(=O)oc2c3c(ccc12)OCC(C[NH+]1CCN(c2ccccc2)CC1)(C[NH+]1CCN(c2ccccc2)CC1)C3=O
REMARK SMILES IDX 1 1 2 2 3 3 4 4 5 5 6 6 7 7 8 8 9 9 10 10 11 11 12 12 13 13
REMARK SMILES IDX 14 14 15 15 42 16 43 17 16 18 17 19 18 20 28 21 19 22 27 23
REMARK SMILES IDX 20 24 21 26 22 27 26 28 23 29 25 30 24 31 29 32 30 33 31 34
REMARK SMILES IDX 41 35 32 36 40 37 33 38 34 40 35 41 39 42 36 43 38 44 37 45
REMARK H PARENT 17 25 30 39
ROOT
ATOM      1  C   UNL     1       2.118   8.086   0.651  1.00  0.00    +0.045 C 
ATOM      2  C   UNL     1       2.345   6.614   0.454  1.00  0.00    -0.033 C 
ATOM      3  C   UNL     1       3.580   6.127   0.259  1.00  0.00    +0.098 C 
ATOM      4  C   UNL     1       3.861   4.700   0.058  1.00  0.00    +0.336 C 
ATOM      5  O   UNL     1       4.995   4.283  -0.135  1.00  0.00    -0.246 OA
ATOM      6  O   UNL     1       2.768   3.849   0.095  1.00  0.00    -0.422 OA
ATOM      7  C   UNL     1       1.454   4.313   0.295  1.00  0.00    +0.153 A 
ATOM      8  C   UNL     1       0.415   3.373   0.300  1.00  0.00    +0.104 A 
ATOM      9  C   UNL     1      -0.900   3.809   0.452  1.00  0.00    +0.134 A 
ATOM     10  C   UNL     1      -1.169   5.159   0.652  1.00  0.00    +0.048 A 
ATOM     11  C   UNL     1      -0.120   6.088   0.657  1.00  0.00    +0.016 A 
ATOM     12  C   UNL     1       1.209   5.679   0.470  1.00  0.00    +0.022 A 
ATOM     13  O   UNL     1      -1.968   2.950   0.447  1.00  0.00    -0.491 OA
ATOM     14  C   UNL     1      -1.725   1.826  -0.399  1.00  0.00    +0.256 C 
ATOM     15  C   UNL     1      -0.559   0.983   0.129  1.00  0.00    +0.165 C 
ATOM     16  C   UNL     1       0.646   1.910   0.201  1.00  0.00    +0.191 C 
ATOM     17  O   UNL     1       1.768   1.411   0.254  1.00  0.00    -0.293 OA
ENDROOT
BRANCH  15  18
ATOM     18  C   UNL     1      -0.773   0.497   1.588  1.00  0.00    +0.287 C 
BRANCH  18  19
ATOM     19  N   UNL     1      -2.052  -0.259   1.845  1.00  0.00    -0.331 N 
ATOM     20  C   UNL     1      -3.201   0.579   2.477  1.00  0.00    +0.284 C 
ATOM     21  C   UNL     1      -1.876  -1.525   2.724  1.00  0.00    +0.284 C 
ATOM     22  C   UNL     1      -4.528  -0.185   2.236  1.00  0.00    +0.178 C 
ATOM     23  C   UNL     1      -3.250  -2.212   2.932  1.00  0.00    +0.178 C 
ATOM     24  N   UNL     1      -4.231  -1.617   2.001  1.00  0.00    -0.360 N 
ATOM     25  H   UNL     1      -2.508  -0.655   1.005  1.00  0.00    +0.348 HD
BRANCH  24  26
ATOM     26  C   UNL     1      -5.143  -2.431   1.340  1.00  0.00    +0.037 A 
ATOM     27  C   UNL     1      -4.755  -3.668   0.796  1.00  0.00    +0.026 A 
ATOM     28  C   UNL     1      -6.482  -2.054   1.148  1.00  0.00    +0.026 A 
ATOM     29  C   UNL     1      -5.655  -4.490   0.108  1.00  0.00    +0.002 A 
ATOM     30  C   UNL     1      -7.389  -2.871   0.460  1.00  0.00    +0.002 A 
ATOM     31  C   UNL     1      -6.975  -4.090  -0.060  1.00  0.00    +0.000 A 
ENDBRANCH  24  26
ENDBRANCH  18  19
ENDBRANCH  15  18
BRANCH  15  32
ATOM     32  C   UNL     1      -0.276  -0.152  -0.904  1.00  0.00    +0.287 C 
BRANCH  32  33
ATOM     33  N   UNL     1       1.124  -0.745  -0.890  1.00  0.00    -0.331 N 
ATOM     34  C   UNL     1       1.260  -2.114  -0.231  1.00  0.00    +0.284 C 
ATOM     35  C   UNL     1       1.747  -0.802  -2.310  1.00  0.00    +0.284 C 
ATOM     36  C   UNL     1       2.734  -2.563  -0.171  1.00  0.00    +0.178 C 
ATOM     37  C   UNL     1       3.216  -1.269  -2.255  1.00  0.00    +0.178 C 
ATOM     38  N   UNL     1       3.326  -2.532  -1.509  1.00  0.00    -0.360 N 
ATOM     39  H   UNL     1       1.773  -0.096  -0.390  1.00  0.00    +0.348 HD
BRANCH  38  40
ATOM     40  C   UNL     1       4.446  -3.320  -1.779  1.00  0.00    +0.037 A 
ATOM     41  C   UNL     1       4.712  -3.749  -3.090  1.00  0.00    +0.026 A 
ATOM     42  C   UNL     1       5.341  -3.730  -0.778  1.00  0.00    +0.026 A 
ATOM     43  C   UNL     1       5.823  -4.543  -3.391  1.00  0.00    +0.002 A 
ATOM     44  C   UNL     1       6.456  -4.523  -1.075  1.00  0.00    +0.002 A 
ATOM     45  C   UNL     1       6.697  -4.929  -2.382  1.00  0.00    +0.000 A 
ENDBRANCH  38  40
ENDBRANCH  32  33
ENDBRANCH  15  32
TORSDOF 6
