REMARK SMILES CC(C)(Oc1ccc2c(c1)S(=O)(=O)[NH+]=C(c1c([O-])c3cc(F)ccc3n(CCC3CC3)c1=O)N2)C(=O)[O-]
REMARK SMILES IDX 5 1 6 2 7 3 8 4 9 5 10 6 11 7 12 8 13 9 14 10 15 11 34 12
REMARK SMILES IDX 4 15 2 16 1 17 3 18 35 19 36 20 37 21 16 22 17 23 32 24
REMARK SMILES IDX 19 25 26 26 33 27 20 28 25 29 21 30 24 31 23 32 18 33 22 34
REMARK SMILES IDX 27 35 28 36 29 37 30 38 31 39
REMARK H PARENT 14 13 34 14
ROOT
ATOM      1  C   UNL     1       4.502   0.918  -0.905  1.00  0.00    +0.122 A 
ATOM      2  C   UNL     1       3.633   1.941  -0.532  1.00  0.00    +0.051 A 
ATOM      3  C   UNL     1       2.312   1.644  -0.194  1.00  0.00    +0.057 A 
ATOM      4  C   UNL     1       1.837   0.331  -0.270  1.00  0.00    +0.148 A 
ATOM      5  C   UNL     1       2.709  -0.653  -0.712  1.00  0.00    +0.159 A 
ATOM      6  C   UNL     1       4.040  -0.382  -1.041  1.00  0.00    +0.075 A 
ATOM      7  S   UNL     1       2.088  -2.276  -0.883  1.00  0.00    +0.333 S 
ATOM      8  O   UNL     1       2.892  -3.109  -0.012  1.00  0.00    -0.179 OA
ATOM      9  O   UNL     1       2.090  -2.524  -2.313  1.00  0.00    -0.179 OA
ATOM     10  N   UNL     1       0.606  -2.189  -0.353  1.00  0.00    -0.161 N 
ATOM     11  C   UNL     1       0.004  -1.103   0.041  1.00  0.00    +0.300 C 
ATOM     12  N   UNL     1       0.552   0.095   0.081  1.00  0.00    -0.238 N 
ATOM     13  H   UNL     1       0.008  -3.027  -0.322  1.00  0.00    +0.327 HD
ATOM     14  H   UNL     1      -0.045   0.855   0.427  1.00  0.00    +0.312 HD
ENDROOT
BRANCH   1  15
ATOM     15  O   UNL     1       5.802   1.210  -1.190  1.00  0.00    -0.482 OA
BRANCH  15  16
ATOM     16  C   UNL     1       6.700   1.177  -0.027  1.00  0.00    +0.143 C 
ATOM     17  C   UNL     1       7.237  -0.247   0.150  1.00  0.00    +0.063 C 
ATOM     18  C   UNL     1       7.869   2.097  -0.399  1.00  0.00    +0.063 C 
BRANCH  16  19
ATOM     19  C   UNL     1       6.042   1.727   1.295  1.00  0.00    +0.084 C 
ATOM     20  O   UNL     1       6.000   2.987   1.419  1.00  0.00    -0.546 OA
ATOM     21  O   UNL     1       5.581   0.850   2.086  1.00  0.00    -0.546 OA
ENDBRANCH  16  19
ENDBRANCH  15  16
ENDBRANCH   1  15
BRANCH  11  22
ATOM     22  C   UNL     1      -1.531  -1.270   0.493  1.00  0.00    +0.123 C 
ATOM     23  C   UNL     1      -2.117  -2.492   0.415  1.00  0.00    -0.078 C 
ATOM     24  C   UNL     1      -2.220  -0.038   0.961  1.00  0.00    +0.266 C 
ATOM     25  C   UNL     1      -3.553  -2.527   0.870  1.00  0.00    -0.006 A 
ATOM     26  N   UNL     1      -3.540  -0.128   1.364  1.00  0.00    -0.308 N 
ATOM     27  O   UNL     1      -1.579   1.021   0.961  1.00  0.00    -0.268 OA
ATOM     28  C   UNL     1      -4.257  -3.752   0.841  1.00  0.00    +0.049 A 
ATOM     29  C   UNL     1      -4.229  -1.376   1.329  1.00  0.00    +0.051 A 
ATOM     30  C   UNL     1      -5.579  -3.832   1.253  1.00  0.00    +0.123 A 
ATOM     31  C   UNL     1      -5.572  -1.486   1.744  1.00  0.00    +0.030 A 
ATOM     32  C   UNL     1      -6.244  -2.708   1.705  1.00  0.00    +0.041 A 
ATOM     33  O   UNL     1      -1.538  -3.543  -0.001  1.00  0.00    -0.871 OA
ATOM     34  F   UNL     1      -6.223  -5.007   1.214  1.00  0.00    -0.207 F 
BRANCH  26  35
ATOM     35  C   UNL     1      -4.211   1.104   1.785  1.00  0.00    +0.126 C 
BRANCH  35  36
ATOM     36  C   UNL     1      -5.083   1.733   0.687  1.00  0.00    +0.025 C 
BRANCH  36  37
ATOM     37  C   UNL     1      -4.287   2.216  -0.492  1.00  0.00    -0.009 C 
ATOM     38  C   UNL     1      -4.061   1.322  -1.684  1.00  0.00    +0.004 C 
ATOM     39  C   UNL     1      -4.983   2.503  -1.797  1.00  0.00    +0.004 C 
ENDBRANCH  36  37
ENDBRANCH  35  36
ENDBRANCH  26  35
ENDBRANCH  11  22
TORSDOF 7
