REMARK SMILES COc1ccc(Cn2ncc3[n-]c(-c4ccc(NC(=O)Nc5cc(N6CCOCC6)cc(C(F)(F)F)c5)cc4C)nc32)cc1
REMARK SMILES IDX 8 1 9 2 10 3 11 4 12 5 13 6 41 7 42 8 7 9 6 10 3 11 4 12
REMARK SMILES IDX 44 13 5 14 43 15 2 16 1 17 14 18 15 19 39 20 16 21 38 22
REMARK SMILES IDX 17 23 40 24 18 25 19 26 20 27 21 28 22 31 23 32 37 33 24 34
REMARK SMILES IDX 32 35 31 36 25 37 26 38 30 39 27 40 29 41 28 42 33 43 34 44
REMARK SMILES IDX 35 45 36 46
REMARK H PARENT 18 29 21 30
ROOT
ATOM      1  N   UNL     1       6.804   1.191   2.904  1.00  0.00    -0.265 N 
ATOM      2  N   UNL     1       7.669   0.518   3.749  1.00  0.00    -0.181 NA
ATOM      3  C   UNL     1       6.928  -0.555   4.130  1.00  0.00    +0.139 A 
ATOM      4  C   UNL     1       5.663  -0.522   3.565  1.00  0.00    +0.001 A 
ATOM      5  N   UNL     1       4.407  -1.218   3.499  1.00  0.00    -0.433 NA
ATOM      6  C   UNL     1       3.631  -0.421   2.643  1.00  0.00    -0.049 A 
ATOM      7  N   UNL     1       4.310   0.709   2.186  1.00  0.00    -0.419 NA
ATOM      8  C   UNL     1       5.607   0.577   2.812  1.00  0.00    +0.053 A 
ENDROOT
BRANCH   1   9
ATOM      9  C   UNL     1       7.167   2.449   2.290  1.00  0.00    +0.180 C 
BRANCH   9  10
ATOM     10  C   UNL     1       7.816   2.256   0.940  1.00  0.00    -0.026 A 
ATOM     11  C   UNL     1       9.005   1.888  -1.589  1.00  0.00    +0.118 A 
ATOM     12  C   UNL     1       7.635   1.692  -1.422  1.00  0.00    +0.047 A 
ATOM     13  C   UNL     1       9.778   2.267  -0.488  1.00  0.00    +0.047 A 
ATOM     14  C   UNL     1       7.045   1.875  -0.167  1.00  0.00    +0.009 A 
ATOM     15  C   UNL     1       9.192   2.446   0.769  1.00  0.00    +0.009 A 
BRANCH  11  16
ATOM     16  O   UNL     1       9.702   1.744  -2.758  1.00  0.00    -0.497 OA
ATOM     17  C   UNL     1       8.971   1.246  -3.871  1.00  0.00    +0.278 C 
ENDBRANCH  11  16
ENDBRANCH   9  10
ENDBRANCH   1   9
BRANCH   6  18
ATOM     18  C   UNL     1       2.123  -0.809   2.254  1.00  0.00    -0.023 A 
ATOM     19  C   UNL     1       1.615  -1.989   2.814  1.00  0.00    +0.010 A 
ATOM     20  C   UNL     1       1.309  -0.045   1.398  1.00  0.00    -0.042 A 
ATOM     21  C   UNL     1       0.316  -2.415   2.534  1.00  0.00    +0.027 A 
ATOM     22  C   UNL     1      -0.004  -0.493   1.125  1.00  0.00    +0.030 A 
ATOM     23  C   UNL     1      -0.507  -1.669   1.687  1.00  0.00    +0.043 A 
ATOM     24  C   UNL     1       1.777   1.230   0.757  1.00  0.00    +0.045 C 
BRANCH  23  25
ATOM     25  N   UNL     1      -1.802  -2.179   1.449  1.00  0.00    -0.308 N 
ATOM     26  C   UNL     1      -2.821  -1.615   0.695  1.00  0.00    +0.323 C 
ATOM     27  O   UNL     1      -2.782  -0.517   0.156  1.00  0.00    -0.248 OA
ATOM     28  N   UNL     1      -3.904  -2.487   0.633  1.00  0.00    -0.308 N 
ATOM     29  H   UNL     1      -2.011  -3.038   1.928  1.00  0.00    +0.171 HD
ATOM     30  H   UNL     1      -3.742  -3.412   0.997  1.00  0.00    +0.171 HD
BRANCH  28  31
ATOM     31  C   UNL     1      -5.169  -2.258   0.049  1.00  0.00    +0.045 A 
ATOM     32  C   UNL     1      -5.579  -1.029  -0.479  1.00  0.00    +0.052 A 
ATOM     33  C   UNL     1      -6.056  -3.336   0.017  1.00  0.00    +0.039 A 
ATOM     34  C   UNL     1      -6.851  -0.841  -1.051  1.00  0.00    +0.039 A 
ATOM     35  C   UNL     1      -7.333  -3.195  -0.543  1.00  0.00    +0.060 A 
ATOM     36  C   UNL     1      -7.706  -1.952  -1.080  1.00  0.00    +0.039 A 
BRANCH  34  37
ATOM     37  N   UNL     1      -7.257   0.374  -1.597  1.00  0.00    -0.367 N 
ATOM     38  C   UNL     1      -8.553   0.935  -1.168  1.00  0.00    +0.145 C 
ATOM     39  C   UNL     1      -6.252   1.398  -1.946  1.00  0.00    +0.145 C 
ATOM     40  C   UNL     1      -9.040   1.985  -2.179  1.00  0.00    +0.181 C 
ATOM     41  C   UNL     1      -6.853   2.427  -2.917  1.00  0.00    +0.181 C 
ATOM     42  O   UNL     1      -8.061   3.010  -2.401  1.00  0.00    -0.378 OA
ENDBRANCH  34  37
BRANCH  35  43
ATOM     43  C   UNL     1      -8.276  -4.365  -0.616  1.00  0.00    +0.416 C 
ATOM     44  F   UNL     1      -8.178  -5.042  -1.794  1.00  0.00    -0.166 F 
ATOM     45  F   UNL     1      -8.058  -5.290   0.362  1.00  0.00    -0.166 F 
ATOM     46  F   UNL     1      -9.585  -4.007  -0.499  1.00  0.00    -0.166 F 
ENDBRANCH  35  43
ENDBRANCH  28  31
ENDBRANCH  23  25
ENDBRANCH   6  18
TORSDOF 8
