REMARK SMILES C[C@@H]1CCC[NH+]1CCc1ccc2nc(-c3nccs3)ccc2c1
REMARK SMILES IDX 7 1 6 2 2 3 3 4 4 5 5 6 1 7 8 9 9 10 10 11 23 12 11 13 22 14
REMARK SMILES IDX 12 15 21 16 13 17 20 18 14 19 15 20 16 21 19 22 17 23 18 24
REMARK H PARENT 6 8
ROOT
ATOM      1  C   UNL     1      -2.142   0.204   0.168  1.00  0.00    +0.267 C 
ENDROOT
BRANCH   1   2
ATOM      2  N   UNL     1      -3.628  -0.003   0.360  1.00  0.00    -0.332 N 
ATOM      3  C   UNL     1      -4.485   0.938  -0.496  1.00  0.00    +0.181 C 
ATOM      4  C   UNL     1      -5.515   0.027  -1.162  1.00  0.00    +0.070 C 
ATOM      5  C   UNL     1      -5.567  -1.208  -0.284  1.00  0.00    +0.067 C 
ATOM      6  C   UNL     1      -4.117  -1.411   0.091  1.00  0.00    +0.262 C 
ATOM      7  C   UNL     1      -5.108   1.990   0.410  1.00  0.00    +0.075 C 
ATOM      8  H   UNL     1      -3.841   0.200   1.347  1.00  0.00    +0.348 HD
ENDBRANCH   1   2
BRANCH   1   9
ATOM      9  C   UNL     1      -1.336  -0.599   1.192  1.00  0.00    +0.097 C 
BRANCH   9  10
ATOM     10  C   UNL     1       0.138  -0.313   1.062  1.00  0.00    -0.042 A 
ATOM     11  C   UNL     1       0.719   0.749   1.760  1.00  0.00    +0.006 A 
ATOM     12  C   UNL     1       0.946  -1.084   0.217  1.00  0.00    +0.014 A 
ATOM     13  C   UNL     1       2.081   1.029   1.610  1.00  0.00    +0.029 A 
ATOM     14  C   UNL     1       2.317  -0.796   0.073  1.00  0.00    +0.000 A 
ATOM     15  C   UNL     1       2.896   0.278   0.777  1.00  0.00    +0.071 A 
ATOM     16  C   UNL     1       3.148  -1.553  -0.761  1.00  0.00    +0.013 A 
ATOM     17  N   UNL     1       4.195   0.598   0.670  1.00  0.00    -0.245 NA
ATOM     18  C   UNL     1       4.496  -1.226  -0.871  1.00  0.00    +0.032 A 
ATOM     19  C   UNL     1       4.987  -0.147  -0.144  1.00  0.00    +0.100 A 
BRANCH  19  20
ATOM     20  C   UNL     1       6.412   0.228  -0.239  1.00  0.00    +0.141 A 
ATOM     21  N   UNL     1       7.297  -0.388  -1.006  1.00  0.00    -0.243 NA
ATOM     22  S   UNL     1       7.054   1.547   0.675  1.00  0.00    -0.121 S 
ATOM     23  C   UNL     1       8.540   0.199  -0.870  1.00  0.00    +0.123 A 
ATOM     24  C   UNL     1       8.601   1.264  -0.000  1.00  0.00    +0.087 A 
ENDBRANCH  19  20
ENDBRANCH   9  10
ENDBRANCH   1   9
TORSDOF 4
