REMARK SMILES Cn1c(=O)c(-c2c(Cl)cccc2Cl)cc2cnc(NCCCn3ccnc3)cc21
REMARK SMILES IDX 19 1 18 3 2 4 3 5 29 6 4 7 5 8 28 9 15 10 14 11 16 12 17 13
REMARK SMILES IDX 1 14 6 15 7 16 12 17 9 18 11 19 10 20 8 21 13 22 20 23 21 24
REMARK SMILES IDX 22 25 23 26 24 27 27 28 25 29 26 30
REMARK H PARENT 19 2
ROOT
ATOM      1  N   UNL     1      -2.425  -0.237   0.650  1.00  0.00    -0.370 N 
ATOM      2  H   UNL     1      -2.864   0.045   1.520  1.00  0.00    +0.162 HD
ENDROOT
BRANCH   1   3
ATOM      3  C   UNL     1      -1.063  -0.129   0.710  1.00  0.00    +0.128 A 
ATOM      4  N   UNL     1       2.116  -0.738  -1.171  1.00  0.00    -0.311 N 
ATOM      5  C   UNL     1       3.491  -0.573  -1.008  1.00  0.00    +0.258 C 
ATOM      6  C   UNL     1       1.182  -0.356  -0.158  1.00  0.00    +0.056 A 
ATOM      7  O   UNL     1       4.320  -0.891  -1.860  1.00  0.00    -0.269 OA
ATOM      8  C   UNL     1       3.962   0.026   0.284  1.00  0.00    +0.051 C 
ATOM      9  C   UNL     1      -0.202  -0.516  -0.310  1.00  0.00    +0.073 A 
ATOM     10  C   UNL     1       1.661   0.197   1.028  1.00  0.00    +0.018 A 
ATOM     11  C   UNL     1       3.089   0.385   1.237  1.00  0.00    +0.026 C 
ATOM     12  C   UNL     1       0.733   0.559   1.992  1.00  0.00    +0.123 A 
ATOM     13  N   UNL     1      -0.604   0.407   1.853  1.00  0.00    -0.239 NA
ATOM     14  C   UNL     1       1.638  -1.317  -2.416  1.00  0.00    +0.153 C 
BRANCH   8  15
ATOM     15  C   UNL     1       5.409   0.222   0.508  1.00  0.00    +0.025 A 
ATOM     16  C   UNL     1       6.044   1.418   0.125  1.00  0.00    +0.050 A 
ATOM     17  C   UNL     1       6.193  -0.788   1.094  1.00  0.00    +0.050 A 
ATOM     18  C   UNL     1       7.417   1.597   0.326  1.00  0.00    +0.021 A 
ATOM     19  C   UNL     1       7.567  -0.605   1.293  1.00  0.00    +0.021 A 
ATOM     20  C   UNL     1       8.178   0.586   0.908  1.00  0.00    +0.003 A 
ATOM     21 Cl   UNL     1       5.170   2.728  -0.597  1.00  0.00    -0.084 Cl
ATOM     22 Cl   UNL     1       5.511  -2.294   1.609  1.00  0.00    -0.084 Cl
ENDBRANCH   8  15
ENDBRANCH   1   3
BRANCH   1  23
ATOM     23  C   UNL     1      -3.177  -0.924  -0.371  1.00  0.00    +0.116 C 
BRANCH  23  24
ATOM     24  C   UNL     1      -4.675  -0.718  -0.164  1.00  0.00    +0.043 C 
BRANCH  24  25
ATOM     25  C   UNL     1      -5.091   0.731  -0.410  1.00  0.00    +0.125 C 
BRANCH  25  26
ATOM     26  N   UNL     1      -6.523   0.910  -0.283  1.00  0.00    -0.337 N 
ATOM     27  C   UNL     1      -7.445   0.802  -1.286  1.00  0.00    +0.107 A 
ATOM     28  C   UNL     1      -7.191   1.230   0.864  1.00  0.00    +0.199 A 
ATOM     29  C   UNL     1      -8.654   1.058  -0.682  1.00  0.00    +0.130 A 
ATOM     30  N   UNL     1      -8.485   1.321   0.653  1.00  0.00    -0.245 NA
ENDBRANCH  25  26
ENDBRANCH  24  25
ENDBRANCH  23  24
ENDBRANCH   1  23
TORSDOF 6
