REMARK SMILES CC(=O)O[C@H]1[C@H](OC(=O)c2ccccc2)[C@@]2(C)[C@@H](OC(=O)/C=C/c3ccccc3)C[C@@H]3[C@@H](O)[C@]2(OC3(C)C)[C@@](C)(O)[C@H]1OC(C)=O
REMARK SMILES IDX 5 1 6 2 16 3 17 4 18 5 30 6 31 7 32 8 34 9 35 10 36 11 37 12
REMARK SMILES IDX 38 13 39 14 40 15 42 16 4 17 2 18 3 19 1 20 7 21 8 22 9 23
REMARK SMILES IDX 10 24 11 25 15 26 12 27 14 28 13 29 43 30 44 31 46 32 45 33
REMARK SMILES IDX 41 34 19 36 20 37 21 38 22 39 23 40 24 41 25 42 29 43 26 44
REMARK SMILES IDX 28 45 27 46 33 47
REMARK H PARENT 41 35 33 48
ROOT
ATOM      1  C   UNL     1      -1.780   0.407  -1.763  1.00  0.00    +0.262 C 
ATOM      2  C   UNL     1      -0.353   0.293  -1.174  1.00  0.00    +0.234 C 
ATOM      3  C   UNL     1       0.443  -0.924  -1.768  1.00  0.00    +0.080 C 
ATOM      4  C   UNL     1       0.771  -0.650  -3.269  1.00  0.00    +0.023 C 
ATOM      5  C   UNL     1       1.859  -1.064  -1.081  1.00  0.00    +0.190 C 
ATOM      6  C   UNL     1       2.414  -2.519  -1.051  1.00  0.00    +0.055 C 
ATOM      7  C   UNL     1       1.359  -3.650  -0.914  1.00  0.00    +0.056 C 
ATOM      8  C   UNL     1       0.376  -3.465  -2.061  1.00  0.00    +0.156 C 
ATOM      9  C   UNL     1      -0.409  -2.236  -1.538  1.00  0.00    +0.140 C 
ATOM     10  O   UNL     1      -0.438  -2.428  -0.066  1.00  0.00    -0.362 OA
ATOM     11  C   UNL     1       0.441  -3.506   0.312  1.00  0.00    +0.069 C 
ATOM     12  C   UNL     1       1.160  -3.207   1.634  1.00  0.00    +0.042 C 
ATOM     13  C   UNL     1      -0.417  -4.754   0.615  1.00  0.00    +0.042 C 
ATOM     14  C   UNL     1      -1.906  -2.136  -2.037  1.00  0.00    +0.135 C 
ATOM     15  C   UNL     1      -2.093  -2.197  -3.565  1.00  0.00    +0.049 C 
ATOM     16  C   UNL     1      -2.604  -0.866  -1.473  1.00  0.00    +0.255 C 
ENDROOT
BRANCH   1  17
ATOM     17  O   UNL     1      -2.438   1.556  -1.181  1.00  0.00    -0.454 OA
BRANCH  17  18
ATOM     18  C   UNL     1      -3.433   2.107  -1.928  1.00  0.00    +0.303 C 
ATOM     19  O   UNL     1      -3.740   1.755  -3.059  1.00  0.00    -0.253 OA
ATOM     20  C   UNL     1      -4.071   3.239  -1.184  1.00  0.00    +0.139 C 
ENDBRANCH  17  18
ENDBRANCH   1  17
BRANCH   2  21
ATOM     21  O   UNL     1       0.383   1.507  -1.479  1.00  0.00    -0.454 OA
BRANCH  21  22
ATOM     22  C   UNL     1       0.387   2.475  -0.528  1.00  0.00    +0.338 C 
ATOM     23  O   UNL     1      -0.180   2.430   0.552  1.00  0.00    -0.246 OA
BRANCH  22  24
ATOM     24  C   UNL     1       1.214   3.631  -0.962  1.00  0.00    +0.060 A 
ATOM     25  C   UNL     1       1.384   4.695  -0.064  1.00  0.00    +0.015 A 
ATOM     26  C   UNL     1       1.825   3.691  -2.222  1.00  0.00    +0.015 A 
ATOM     27  C   UNL     1       2.154   5.803  -0.421  1.00  0.00    +0.001 A 
ATOM     28  C   UNL     1       2.596   4.802  -2.575  1.00  0.00    +0.001 A 
ATOM     29  C   UNL     1       2.759   5.855  -1.676  1.00  0.00    +0.000 A 
ENDBRANCH  22  24
ENDBRANCH  21  22
ENDBRANCH   2  21
BRANCH  16  30
ATOM     30  O   UNL     1      -2.743  -1.006  -0.034  1.00  0.00    -0.455 OA
BRANCH  30  31
ATOM     31  C   UNL     1      -3.878  -0.543   0.544  1.00  0.00    +0.303 C 
ATOM     32  O   UNL     1      -4.799   0.024  -0.027  1.00  0.00    -0.253 OA
ATOM     33  C   UNL     1      -3.835  -0.807   2.018  1.00  0.00    +0.139 C 
ENDBRANCH  30  31
ENDBRANCH  16  30
BRANCH  14  34
ATOM     34  O   UNL     1      -2.653  -3.283  -1.563  1.00  0.00    -0.383 OA
ATOM     35  H   UNL     1      -2.108  -4.068  -1.781  1.00  0.00    +0.211 HD
ENDBRANCH  14  34
BRANCH   5  36
ATOM     36  O   UNL     1       1.830  -0.516   0.251  1.00  0.00    -0.458 OA
BRANCH  36  37
ATOM     37  C   UNL     1       2.979   0.036   0.713  1.00  0.00    +0.331 C 
ATOM     38  O   UNL     1       4.048   0.070   0.120  1.00  0.00    -0.247 OA
BRANCH  37  39
ATOM     39  C   UNL     1       2.819   0.596   2.069  1.00  0.00    +0.094 C 
ATOM     40  C   UNL     1       1.651   0.662   2.726  1.00  0.00    +0.015 C 
BRANCH  40  41
ATOM     41  C   UNL     1       1.499   1.211   4.080  1.00  0.00    -0.025 A 
ATOM     42  C   UNL     1       0.544   0.642   4.933  1.00  0.00    +0.008 A 
ATOM     43  C   UNL     1       2.234   2.314   4.533  1.00  0.00    +0.008 A 
ATOM     44  C   UNL     1       0.348   1.146   6.221  1.00  0.00    +0.001 A 
ATOM     45  C   UNL     1       2.038   2.819   5.822  1.00  0.00    +0.001 A 
ATOM     46  C   UNL     1       1.098   2.232   6.666  1.00  0.00    +0.000 A 
ENDBRANCH  40  41
ENDBRANCH  37  39
ENDBRANCH  36  37
ENDBRANCH   5  36
BRANCH   8  47
ATOM     47  O   UNL     1      -0.432  -4.622  -2.260  1.00  0.00    -0.390 OA
ATOM     48  H   UNL     1       0.162  -5.365  -2.473  1.00  0.00    +0.211 HD
ENDBRANCH   8  47
TORSDOF 13
