REMARK SMILES C[NH+]1CCOCCOCC[NH+](C)CCn2cc(c3ccccc32)C2=C(C(=O)NC2=O)c2cn(c3ccccc23)CC1
REMARK SMILES IDX 24 1 25 2 26 3 27 4 28 5 29 6 30 7 31 9 33 10 32 11 34 12
REMARK SMILES IDX 35 13 39 14 36 15 38 16 37 17 40 18 41 19 2 20 1 21 3 23
REMARK SMILES IDX 4 24 5 25 6 26 17 28 16 29 18 30 15 31 19 32 23 33 20 34
REMARK SMILES IDX 22 35 21 36 14 37 13 38 11 39 12 40 10 42 9 43 8 44 7 45
REMARK H PARENT 28 8 2 22 11 41
REMARK Flexibility Score:   71.900
ROOT
ATOM      1  C   UNL     1      -0.461  -2.343  -1.932  1.00  0.00    +0.063 C 
ATOM      2  C   UNL     1      -1.687  -1.816  -1.764  1.00  0.00    +0.063 C 
ATOM      3  C   UNL     1      -2.379  -1.919  -3.076  1.00  0.00    +0.259 C 
ATOM      4  O   UNL     1      -3.456  -1.422  -3.353  1.00  0.00    -0.269 OA
ATOM      5  N   UNL     1      -1.564  -2.581  -3.917  1.00  0.00    -0.288 N 
ATOM      6  C   UNL     1      -0.371  -2.809  -3.337  1.00  0.00    +0.259 C 
ATOM      7  O   UNL     1       0.623  -3.248  -3.882  1.00  0.00    -0.269 OA
ATOM      8  H   UNL     1      -1.775  -2.783  -4.881  1.00  0.00    +0.173 HD
ENDROOT
BRANCH   2   9
ATOM      9  C   UNL     1      -2.278  -1.177  -0.618  1.00  0.00    +0.014 C 
ATOM     10  N   UNL     1      -3.447   0.418   0.570  1.00  0.00    -0.341 N 
ATOM     11  C   UNL     1      -3.092  -0.100  -0.665  1.00  0.00    +0.096 C 
ATOM     12  C   UNL     1      -2.918  -0.473   1.509  1.00  0.00    +0.049 A 
ATOM     13  C   UNL     1      -3.044  -0.501   2.886  1.00  0.00    +0.027 A 
ATOM     14  C   UNL     1      -2.193  -1.479   0.827  1.00  0.00    +0.008 A 
ATOM     15  C   UNL     1      -2.449  -1.556   3.586  1.00  0.00    +0.002 A 
ATOM     16  C   UNL     1      -1.636  -2.545   1.515  1.00  0.00    +0.011 A 
ATOM     17  C   UNL     1      -1.757  -2.571   2.907  1.00  0.00    +0.001 A 
BRANCH  10  18
ATOM     18  C   UNL     1      -4.489   1.375   0.921  1.00  0.00    +0.183 C 
BRANCH  18  19
ATOM     19  C   UNL     1      -4.623   2.503  -0.115  1.00  0.00    +0.284 C 
BRANCH  19  20
ATOM     20  N   UNL     1      -3.272   3.142  -0.450  1.00  0.00    -0.334 N 
ATOM     21  C   UNL     1      -3.277   3.693  -1.849  1.00  0.00    +0.332 C 
ATOM     22  H   UNL     1      -2.580   2.368  -0.436  1.00  0.00    +0.348 HD
BRANCH  20  23
ATOM     23  C   UNL     1      -2.775   4.150   0.574  1.00  0.00    +0.290 C 
BRANCH  23  24
ATOM     24  C   UNL     1      -1.654   3.544   1.435  1.00  0.00    +0.221 C 
BRANCH  24  25
ATOM     25  O   UNL     1      -0.610   2.940   0.660  1.00  0.00    -0.373 OA
BRANCH  25  26
ATOM     26  C   UNL     1       0.224   3.874  -0.038  1.00  0.00    +0.189 CG0
ATOM     27  G   UNL     1       1.662   3.346  -0.150  1.00  0.00    +0.000 G0
ENDBRANCH  25  26
ENDBRANCH  24  25
ENDBRANCH  23  24
ENDBRANCH  20  23
ENDBRANCH  19  20
ENDBRANCH  18  19
ENDBRANCH  10  18
ENDBRANCH   2   9
BRANCH   1  28
ATOM     28  C   UNL     1       0.644  -2.423  -1.019  1.00  0.00    +0.014 C 
ATOM     29  C   UNL     1       1.066  -1.456  -0.175  1.00  0.00    +0.096 C 
ATOM     30  C   UNL     1       1.546  -3.559  -0.733  1.00  0.00    +0.008 A 
ATOM     31  N   UNL     1       2.136  -1.825   0.627  1.00  0.00    -0.341 N 
ATOM     32  C   UNL     1       1.601  -4.839  -1.258  1.00  0.00    +0.011 A 
ATOM     33  C   UNL     1       2.418  -3.151   0.303  1.00  0.00    +0.049 A 
ATOM     34  C   UNL     1       2.550  -5.721  -0.741  1.00  0.00    +0.001 A 
ATOM     35  C   UNL     1       3.350  -4.030   0.823  1.00  0.00    +0.027 A 
ATOM     36  C   UNL     1       3.414  -5.322   0.291  1.00  0.00    +0.002 A 
BRANCH  31  37
ATOM     37  C   UNL     1       2.653  -1.142   1.804  1.00  0.00    +0.183 C 
BRANCH  37  38
ATOM     38  C   UNL     1       3.205   0.244   1.422  1.00  0.00    +0.284 C 
BRANCH  38  39
ATOM     39  N   UNL     1       4.014   0.179   0.129  1.00  0.00    -0.334 N 
ATOM     40  C   UNL     1       5.365  -0.457   0.326  1.00  0.00    +0.332 C 
ATOM     41  H   UNL     1       3.482  -0.481  -0.467  1.00  0.00    +0.348 HD
BRANCH  39  42
ATOM     42  C   UNL     1       4.118   1.510  -0.596  1.00  0.00    +0.290 C 
BRANCH  42  43
ATOM     43  C   UNL     1       2.898   1.784  -1.496  1.00  0.00    +0.221 C 
BRANCH  43  44
ATOM     44  O   UNL     1       1.681   2.067  -0.799  1.00  0.00    -0.373 OA
BRANCH  44  45
ATOM     45  C   UNL     1       1.662   3.346  -0.150  1.00  0.00    +0.189 CG0
ATOM     46  G   UNL     1       0.224   3.874  -0.038  1.00  0.00    +0.000 G0
ENDBRANCH  44  45
ENDBRANCH  43  44
ENDBRANCH  42  43
ENDBRANCH  39  42
ENDBRANCH  38  39
ENDBRANCH  37  38
ENDBRANCH  31  37
ENDBRANCH   1  28
TORSDOF 0
