REMARK SMILES Cc1ccc(NC(=O)c2cccc(C(F)(F)F)c2)cc1Nc1nc2ccccc2n1-c1cc(N2CCOCC2)ncn1
REMARK SMILES IDX 1 1 2 2 3 3 4 4 5 5 19 6 20 7 21 8 22 10 23 11 30 12 24 13
REMARK SMILES IDX 29 14 25 15 28 16 26 17 27 18 31 19 32 20 42 21 33 22 41 23
REMARK SMILES IDX 40 24 34 25 35 26 39 27 36 28 38 29 37 30 6 31 7 32 8 33
REMARK SMILES IDX 9 35 10 36 18 37 11 38 13 39 12 40 14 41 15 42 16 43 17 44
REMARK H PARENT 21 9 6 34
ROOT
ATOM      1  C   UNL     1      -0.368  -0.347  -4.207  1.00  0.00    +0.046 C 
ATOM      2  C   UNL     1       0.928  -0.357  -3.441  1.00  0.00    -0.027 A 
ATOM      3  C   UNL     1       2.117  -0.590  -4.153  1.00  0.00    +0.008 A 
ATOM      4  C   UNL     1       3.354  -0.608  -3.507  1.00  0.00    +0.026 A 
ATOM      5  C   UNL     1       3.424  -0.397  -2.137  1.00  0.00    +0.043 A 
ATOM      6  C   UNL     1       2.238  -0.164  -1.424  1.00  0.00    +0.052 A 
ATOM      7  C   UNL     1       0.977  -0.140  -2.045  1.00  0.00    +0.046 A 
ENDROOT
BRANCH   7   8
ATOM      8  N   UNL     1      -0.217   0.104  -1.329  1.00  0.00    -0.325 N 
ATOM      9  H   UNL     1      -1.063   0.026  -1.891  1.00  0.00    +0.170 HD
BRANCH   8  10
ATOM     10  C   UNL     1      -0.398   0.442  -0.025  1.00  0.00    +0.214 A 
ATOM     11  N   UNL     1       0.514   0.653   0.900  1.00  0.00    -0.212 NA
ATOM     12  N   UNL     1      -1.691   0.569   0.515  1.00  0.00    -0.262 N 
ATOM     13  C   UNL     1      -0.156   1.035   2.023  1.00  0.00    +0.091 A 
ATOM     14  C   UNL     1      -1.533   1.048   1.817  1.00  0.00    +0.076 A 
ATOM     15  C   UNL     1       0.376   1.420   3.264  1.00  0.00    +0.031 A 
ATOM     16  C   UNL     1      -2.408   1.532   2.808  1.00  0.00    +0.029 A 
ATOM     17  C   UNL     1      -0.491   1.853   4.271  1.00  0.00    +0.002 A 
ATOM     18  C   UNL     1      -1.861   1.920   4.038  1.00  0.00    +0.002 A 
BRANCH  12  19
ATOM     19  C   UNL     1      -2.911   0.255  -0.175  1.00  0.00    +0.145 A 
ATOM     20  C   UNL     1      -4.062  -0.044   0.533  1.00  0.00    +0.094 A 
ATOM     21  N   UNL     1      -2.876   0.210  -1.527  1.00  0.00    -0.218 NA
ATOM     22  C   UNL     1      -5.215  -0.335  -0.180  1.00  0.00    +0.134 A 
ATOM     23  C   UNL     1      -4.032  -0.088  -2.131  1.00  0.00    +0.226 A 
ATOM     24  N   UNL     1      -5.190  -0.358  -1.523  1.00  0.00    -0.219 NA
BRANCH  22  25
ATOM     25  N   UNL     1      -6.402  -0.658   0.471  1.00  0.00    -0.352 N 
ATOM     26  C   UNL     1      -6.835   0.152   1.622  1.00  0.00    +0.146 C 
ATOM     27  C   UNL     1      -7.506  -1.130  -0.387  1.00  0.00    +0.146 C 
ATOM     28  C   UNL     1      -7.983  -0.545   2.370  1.00  0.00    +0.181 C 
ATOM     29  C   UNL     1      -8.619  -1.760   0.464  1.00  0.00    +0.181 C 
ATOM     30  O   UNL     1      -9.070  -0.866   1.492  1.00  0.00    -0.378 OA
ENDBRANCH  22  25
ENDBRANCH  12  19
ENDBRANCH   8  10
ENDBRANCH   7   8
BRANCH   5  31
ATOM     31  N   UNL     1       4.627  -0.388  -1.398  1.00  0.00    -0.322 N 
ATOM     32  C   UNL     1       5.904  -0.630  -1.866  1.00  0.00    +0.255 C 
ATOM     33  O   UNL     1       6.223  -0.980  -2.996  1.00  0.00    -0.269 OA
ATOM     34  H   UNL     1       4.516  -0.220  -0.406  1.00  0.00    +0.170 HD
BRANCH  32  35
ATOM     35  C   UNL     1       6.984  -0.476  -0.849  1.00  0.00    +0.040 A 
ATOM     36  C   UNL     1       8.089  -1.332  -0.914  1.00  0.00    +0.014 A 
ATOM     37  C   UNL     1       6.934   0.519   0.138  1.00  0.00    +0.027 A 
ATOM     38  C   UNL     1       9.124  -1.216   0.013  1.00  0.00    +0.001 A 
ATOM     39  C   UNL     1       7.969   0.639   1.082  1.00  0.00    +0.056 A 
ATOM     40  C   UNL     1       9.064  -0.237   1.007  1.00  0.00    +0.013 A 
BRANCH  39  41
ATOM     41  C   UNL     1       7.924   1.723   2.131  1.00  0.00    +0.416 C 
ATOM     42  F   UNL     1       8.426   2.904   1.679  1.00  0.00    -0.166 F 
ATOM     43  F   UNL     1       8.633   1.416   3.253  1.00  0.00    -0.166 F 
ATOM     44  F   UNL     1       6.657   1.991   2.556  1.00  0.00    -0.166 F 
ENDBRANCH  39  41
ENDBRANCH  32  35
ENDBRANCH   5  31
TORSDOF 7
