REMARK SMILES O=C(Nc1ccc(-c2nc3c(cnn3Cc3ccccc3)[n-]2)cc1)Nc1cc(Cl)cc(C(F)(F)F)c1
REMARK SMILES IDX 4 1 5 2 6 3 7 4 23 5 24 6 3 7 1 8 2 9 25 10 26 13 27 14
REMARK SMILES IDX 36 15 28 16 31 17 30 18 29 19 32 20 33 21 34 22 35 23 8 24
REMARK SMILES IDX 9 25 22 26 10 27 11 28 14 29 12 30 13 31 15 32 16 33 17 34
REMARK SMILES IDX 21 35 18 36 20 37 19 38
REMARK H PARENT 3 11 25 12
ROOT
ATOM      1  C   UNL     1       1.763  -0.447   0.265  1.00  0.00    +0.042 A 
ATOM      2  C   UNL     1       1.469   0.891   0.541  1.00  0.00    +0.027 A 
ATOM      3  C   UNL     1       0.146   1.291   0.770  1.00  0.00    +0.010 A 
ATOM      4  C   UNL     1      -0.888   0.356   0.725  1.00  0.00    -0.026 A 
ATOM      5  C   UNL     1      -0.605  -0.981   0.450  1.00  0.00    +0.010 A 
ATOM      6  C   UNL     1       0.714  -1.379   0.221  1.00  0.00    +0.027 A 
ENDROOT
BRANCH   1   7
ATOM      7  N   UNL     1       3.060  -0.942   0.013  1.00  0.00    -0.308 N 
ATOM      8  O   UNL     1       4.396   0.934   0.319  1.00  0.00    -0.248 OA
ATOM      9  C   UNL     1       4.260  -0.246   0.028  1.00  0.00    +0.323 C 
ATOM     10  N   UNL     1       5.305  -1.088  -0.341  1.00  0.00    -0.308 N 
ATOM     11  H   UNL     1       3.105  -1.930  -0.171  1.00  0.00    +0.171 HD
ATOM     12  H   UNL     1       5.038  -2.011  -0.642  1.00  0.00    +0.171 HD
BRANCH  10  13
ATOM     13  C   UNL     1       6.682  -0.787  -0.395  1.00  0.00    +0.044 A 
ATOM     14  C   UNL     1       7.534  -1.794  -0.862  1.00  0.00    +0.046 A 
ATOM     15  C   UNL     1       7.234   0.437  -0.007  1.00  0.00    +0.039 A 
ATOM     16  C   UNL     1       8.908  -1.573  -0.947  1.00  0.00    +0.043 A 
ATOM     17  C   UNL     1       8.621   0.666  -0.081  1.00  0.00    +0.059 A 
ATOM     18  C   UNL     1       9.455  -0.351  -0.564  1.00  0.00    +0.033 A 
ATOM     19 Cl   UNL     1       9.939  -2.821  -1.532  1.00  0.00    -0.084 Cl
BRANCH  17  20
ATOM     20  C   UNL     1       9.191   2.003   0.323  1.00  0.00    +0.416 C 
ATOM     21  F   UNL     1      10.529   1.950   0.587  1.00  0.00    -0.166 F 
ATOM     22  F   UNL     1       9.046   2.945  -0.649  1.00  0.00    -0.166 F 
ATOM     23  F   UNL     1       8.617   2.518   1.443  1.00  0.00    -0.166 F 
ENDBRANCH  17  20
ENDBRANCH  10  13
ENDBRANCH   1   7
BRANCH   4  24
ATOM     24  C   UNL     1      -2.385   0.804   0.981  1.00  0.00    -0.050 A 
ATOM     25  N   UNL     1      -3.465  -0.086   0.948  1.00  0.00    -0.419 NA
ATOM     26  N   UNL     1      -2.755   2.122   1.261  1.00  0.00    -0.433 NA
ATOM     27  C   UNL     1      -4.588   0.785   1.227  1.00  0.00    +0.053 A 
ATOM     28  C   UNL     1      -4.183   2.044   1.410  1.00  0.00    +0.001 A 
ATOM     29  N   UNL     1      -5.927   0.767   1.380  1.00  0.00    -0.265 N 
ATOM     30  C   UNL     1      -5.316   2.791   1.690  1.00  0.00    +0.139 A 
ATOM     31  N   UNL     1      -6.432   2.017   1.697  1.00  0.00    -0.181 NA
BRANCH  29  32
ATOM     32  C   UNL     1      -6.776  -0.402   1.331  1.00  0.00    +0.180 C 
BRANCH  32  33
ATOM     33  C   UNL     1      -7.390  -0.603  -0.033  1.00  0.00    -0.027 A 
ATOM     34  C   UNL     1      -6.615  -1.105  -1.090  1.00  0.00    +0.005 A 
ATOM     35  C   UNL     1      -8.734  -0.280  -0.271  1.00  0.00    +0.005 A 
ATOM     36  C   UNL     1      -7.176  -1.293  -2.353  1.00  0.00    +0.000 A 
ATOM     37  C   UNL     1      -9.294  -0.470  -1.536  1.00  0.00    +0.000 A 
ATOM     38  C   UNL     1      -8.516  -0.979  -2.575  1.00  0.00    +0.000 A 
ENDBRANCH  32  33
ENDBRANCH  29  32
ENDBRANCH   4  24
TORSDOF 6
