REMARK SMILES Cc1ccc(NC(=O)Nc2cc(N3CCOCC3)cc(C(F)(F)F)c2)cc1-c1nc2c(cnn2Cc2ccccc2)[n-]1
REMARK SMILES IDX 1 1 2 2 3 3 4 4 5 5 26 6 27 7 28 8 29 9 42 10 30 11 31 12
REMARK SMILES IDX 34 13 32 14 33 15 35 16 36 17 37 18 41 19 38 20 40 21 39 22
REMARK SMILES IDX 6 23 7 24 8 25 9 26 10 29 11 30 25 31 12 32 20 33 19 34
REMARK SMILES IDX 13 35 14 36 18 37 15 38 17 39 16 40 21 41 22 42 23 43 24 44
REMARK H PARENT 6 27 9 28
ROOT
ATOM      1  C   UNL     1       3.487  -3.013  -1.116  1.00  0.00    +0.045 C 
ATOM      2  C   UNL     1       2.354  -2.129  -0.683  1.00  0.00    -0.044 A 
ATOM      3  C   UNL     1       1.043  -2.479  -1.053  1.00  0.00    +0.006 A 
ATOM      4  C   UNL     1      -0.057  -1.694  -0.680  1.00  0.00    +0.026 A 
ATOM      5  C   UNL     1       0.132  -0.540   0.073  1.00  0.00    +0.043 A 
ATOM      6  C   UNL     1       1.431  -0.185   0.444  1.00  0.00    +0.034 A 
ATOM      7  C   UNL     1       2.542  -0.963   0.077  1.00  0.00    -0.022 A 
ENDROOT
BRANCH   7   8
ATOM      8  C   UNL     1       3.972  -0.432   0.571  1.00  0.00    -0.049 A 
ATOM      9  N   UNL     1       5.192  -1.058   0.311  1.00  0.00    -0.419 NA
ATOM     10  N   UNL     1       4.107   0.742   1.327  1.00  0.00    -0.433 NA
ATOM     11  C   UNL     1       6.144  -0.181   0.955  1.00  0.00    +0.053 A 
ATOM     12  C   UNL     1       5.526   0.847   1.540  1.00  0.00    +0.001 A 
ATOM     13  N   UNL     1       7.465  -0.039   1.183  1.00  0.00    -0.265 N 
ATOM     14  C   UNL     1       6.510   1.614   2.142  1.00  0.00    +0.139 A 
ATOM     15  N   UNL     1       7.742   1.077   1.954  1.00  0.00    -0.181 NA
BRANCH  13  16
ATOM     16  C   UNL     1       8.503  -0.962   0.783  1.00  0.00    +0.180 C 
BRANCH  16  17
ATOM     17  C   UNL     1       9.137  -0.569  -0.530  1.00  0.00    -0.027 A 
ATOM     18  C   UNL     1       8.460  -0.797  -1.737  1.00  0.00    +0.005 A 
ATOM     19  C   UNL     1      10.400   0.040  -0.565  1.00  0.00    +0.005 A 
ATOM     20  C   UNL     1       9.039  -0.436  -2.954  1.00  0.00    +0.000 A 
ATOM     21  C   UNL     1      10.979   0.398  -1.784  1.00  0.00    +0.000 A 
ATOM     22  C   UNL     1      10.300   0.158  -2.978  1.00  0.00    +0.000 A 
ENDBRANCH  16  17
ENDBRANCH  13  16
ENDBRANCH   7   8
BRANCH   5  23
ATOM     23  N   UNL     1      -0.903   0.320   0.496  1.00  0.00    -0.308 N 
ATOM     24  C   UNL     1      -2.266   0.196   0.279  1.00  0.00    +0.323 C 
ATOM     25  O   UNL     1      -2.807  -0.728  -0.314  1.00  0.00    -0.248 OA
ATOM     26  N   UNL     1      -2.936   1.283   0.831  1.00  0.00    -0.308 N 
ATOM     27  H   UNL     1      -0.585   1.108   1.039  1.00  0.00    +0.171 HD
ATOM     28  H   UNL     1      -2.349   2.003   1.222  1.00  0.00    +0.171 HD
BRANCH  26  29
ATOM     29  C   UNL     1      -4.327   1.521   0.872  1.00  0.00    +0.045 A 
ATOM     30  C   UNL     1      -5.292   0.624   0.401  1.00  0.00    +0.052 A 
ATOM     31  C   UNL     1      -4.746   2.732   1.429  1.00  0.00    +0.039 A 
ATOM     32  C   UNL     1      -6.670   0.900   0.462  1.00  0.00    +0.039 A 
ATOM     33  C   UNL     1      -6.108   3.048   1.510  1.00  0.00    +0.060 A 
ATOM     34  C   UNL     1      -7.049   2.131   1.014  1.00  0.00    +0.039 A 
BRANCH  32  35
ATOM     35  N   UNL     1      -7.635   0.020  -0.022  1.00  0.00    -0.367 N 
ATOM     36  C   UNL     1      -7.250  -1.052  -0.961  1.00  0.00    +0.145 C 
ATOM     37  C   UNL     1      -8.756  -0.344   0.868  1.00  0.00    +0.145 C 
ATOM     38  C   UNL     1      -8.490  -1.594  -1.690  1.00  0.00    +0.181 C 
ATOM     39  C   UNL     1      -9.921  -0.920   0.049  1.00  0.00    +0.181 C 
ATOM     40  O   UNL     1      -9.507  -2.024  -0.770  1.00  0.00    -0.378 OA
ENDBRANCH  32  35
BRANCH  33  41
ATOM     41  C   UNL     1      -6.561   4.368   2.072  1.00  0.00    +0.416 C 
ATOM     42  F   UNL     1      -7.750   4.287   2.735  1.00  0.00    -0.166 F 
ATOM     43  F   UNL     1      -6.736   5.313   1.108  1.00  0.00    -0.166 F 
ATOM     44  F   UNL     1      -5.680   4.904   2.964  1.00  0.00    -0.166 F 
ENDBRANCH  33  41
ENDBRANCH  26  29
ENDBRANCH   5  23
TORSDOF 7
