REMARK SMILES CC(C)(C)OC(=O)NCCCC(=O)Nc1nc2ccc(Cl)cc2c2nc(-c3ccco3)nn12
REMARK SMILES IDX 9 1 8 2 6 3 7 4 5 6 2 7 1 8 3 9 4 10 10 11 11 12 12 13 13 14
REMARK SMILES IDX 14 15 15 16 16 17 33 18 17 19 32 20 24 21 18 22 23 23 26 24
REMARK SMILES IDX 25 25 19 26 22 27 20 28 21 30 27 31 28 32 31 33 29 34 30 35
REMARK H PARENT 8 5 14 29
ROOT
ATOM      1  C   UNL     1       2.590   0.462  -0.232  1.00  0.00    +0.120 C 
ENDROOT
BRANCH   1   2
ATOM      2  N   UNL     1       3.998   0.527  -0.545  1.00  0.00    -0.321 N 
ATOM      3  C   UNL     1       4.956  -0.064   0.219  1.00  0.00    +0.407 C 
ATOM      4  O   UNL     1       4.742  -0.709   1.233  1.00  0.00    -0.225 OA
ATOM      5  H   UNL     1       4.317   1.023  -1.366  1.00  0.00    +0.167 HD
BRANCH   3   6
ATOM      6  O   UNL     1       6.165   0.181  -0.336  1.00  0.00    -0.444 OA
BRANCH   6   7
ATOM      7  C   UNL     1       7.377  -0.336   0.271  1.00  0.00    +0.106 C 
ATOM      8  C   UNL     1       7.384  -1.869   0.282  1.00  0.00    +0.056 C 
ATOM      9  C   UNL     1       7.593   0.248   1.671  1.00  0.00    +0.056 C 
ATOM     10  C   UNL     1       8.510   0.152  -0.645  1.00  0.00    +0.056 C 
ENDBRANCH   6   7
ENDBRANCH   3   6
ENDBRANCH   1   2
BRANCH   1  11
ATOM     11  C   UNL     1       1.963  -0.830  -0.755  1.00  0.00    +0.031 C 
BRANCH  11  12
ATOM     12  C   UNL     1       0.505  -0.987  -0.331  1.00  0.00    +0.102 C 
BRANCH  12  13
ATOM     13  C   UNL     1      -0.439  -0.019  -1.024  1.00  0.00    +0.226 C 
ATOM     14  O   UNL     1      -0.067   0.759  -1.892  1.00  0.00    -0.275 OA
ATOM     15  N   UNL     1      -1.737  -0.148  -0.557  1.00  0.00    -0.294 N 
ATOM     16  C   UNL     1      -2.835   0.585  -0.957  1.00  0.00    +0.233 C 
ATOM     17  N   UNL     1      -2.870   1.535  -1.840  1.00  0.00    -0.212 NA
ATOM     18  N   UNL     1      -3.978   0.172  -0.269  1.00  0.00    -0.179 N 
ATOM     19  C   UNL     1      -4.115   2.166  -2.107  1.00  0.00    +0.078 A 
ATOM     20  N   UNL     1      -4.013  -0.808   0.664  1.00  0.00    -0.139 NA
ATOM     21  C   UNL     1      -5.205   0.730  -0.470  1.00  0.00    +0.169 A 
ATOM     22  C   UNL     1      -4.160   3.187  -3.056  1.00  0.00    +0.031 A 
ATOM     23  C   UNL     1      -5.313   1.796  -1.445  1.00  0.00    +0.047 A 
ATOM     24  C   UNL     1      -5.321  -0.789   0.990  1.00  0.00    +0.218 A 
ATOM     25  N   UNL     1      -6.080   0.143   0.312  1.00  0.00    -0.203 NA
ATOM     26  C   UNL     1      -5.368   3.830  -3.344  1.00  0.00    +0.023 A 
ATOM     27  C   UNL     1      -6.520   2.435  -1.729  1.00  0.00    +0.034 A 
ATOM     28  C   UNL     1      -6.538   3.452  -2.681  1.00  0.00    +0.041 A 
ATOM     29  H   UNL     1      -1.919  -0.850   0.156  1.00  0.00    +0.173 HD
ATOM     30 Cl   UNL     1      -8.017   4.252  -3.045  1.00  0.00    -0.084 Cl
BRANCH  24  31
ATOM     31  C   UNL     1      -5.942  -1.749   2.058  1.00  0.00    +0.173 A 
ATOM     32  C   UNL     1      -5.259  -2.708   2.783  1.00  0.00    +0.054 A 
ATOM     33  O   UNL     1      -7.261  -1.763   2.419  1.00  0.00    -0.461 OA
ATOM     34  C   UNL     1      -6.209  -3.336   3.625  1.00  0.00    +0.043 A 
ATOM     35  C   UNL     1      -7.412  -2.724   3.365  1.00  0.00    +0.196 A 
ENDBRANCH  24  31
ENDBRANCH  12  13
ENDBRANCH  11  12
ENDBRANCH   1  11
TORSDOF 7
