REMARK SMILES CC(C)(C)COc1nc(C(F)(F)F)ccc1CNC(=O)Nc1cccc2[n-]ncc12
REMARK SMILES IDX 7 1 8 2 9 3 14 4 15 5 16 6 6 7 5 8 2 9 1 10 3 11 4 12 17 13
REMARK SMILES IDX 18 14 19 15 20 16 21 17 22 20 23 21 30 22 24 23 29 24 26 25
REMARK SMILES IDX 25 26 28 27 27 28 10 29 11 30 12 31 13 32
REMARK H PARENT 18 18 21 19
ROOT
ATOM      1  C   UNL     1      -1.863  -1.106   0.656  1.00  0.00    +0.218 A 
ATOM      2  N   UNL     1      -2.491  -2.250   0.298  1.00  0.00    -0.209 NA
ATOM      3  C   UNL     1      -1.833  -3.429   0.491  1.00  0.00    +0.148 A 
ATOM      4  C   UNL     1      -0.561  -3.475   1.058  1.00  0.00    +0.034 A 
ATOM      5  C   UNL     1       0.056  -2.284   1.429  1.00  0.00    +0.013 A 
ATOM      6  C   UNL     1      -0.599  -1.063   1.234  1.00  0.00    +0.034 A 
ENDROOT
BRANCH   1   7
ATOM      7  O   UNL     1      -2.505   0.098   0.445  1.00  0.00    -0.477 OA
BRANCH   7   8
ATOM      8  C   UNL     1      -3.758  -0.021  -0.234  1.00  0.00    +0.237 C 
BRANCH   8   9
ATOM      9  C   UNL     1      -4.363   1.385  -0.463  1.00  0.00    -0.004 C 
ATOM     10  C   UNL     1      -3.412   2.240  -1.318  1.00  0.00    +0.014 C 
ATOM     11  C   UNL     1      -5.707   1.238  -1.194  1.00  0.00    +0.014 C 
ATOM     12  C   UNL     1      -4.593   2.092   0.883  1.00  0.00    +0.014 C 
ENDBRANCH   8   9
ENDBRANCH   7   8
ENDBRANCH   1   7
BRANCH   6  13
ATOM     13  C   UNL     1       0.071   0.225   1.622  1.00  0.00    +0.159 C 
BRANCH  13  14
ATOM     14  N   UNL     1       1.089   0.597   0.667  1.00  0.00    -0.334 N 
ATOM     15  C   UNL     1       2.427   0.347   0.880  1.00  0.00    +0.319 C 
ATOM     16  O   UNL     1       2.826  -0.209   1.896  1.00  0.00    -0.248 OA
ATOM     17  N   UNL     1       3.188   0.792  -0.171  1.00  0.00    -0.307 N 
ATOM     18  H   UNL     1       0.794   1.002  -0.207  1.00  0.00    +0.165 HD
ATOM     19  H   UNL     1       2.706   1.239  -0.934  1.00  0.00    +0.171 HD
BRANCH  17  20
ATOM     20  C   UNL     1       4.586   0.712  -0.329  1.00  0.00    +0.050 A 
ATOM     21  C   UNL     1       5.466   0.141   0.604  1.00  0.00    +0.027 A 
ATOM     22  C   UNL     1       5.196   1.221  -1.479  1.00  0.00    +0.001 A 
ATOM     23  C   UNL     1       6.856   0.095   0.380  1.00  0.00    +0.001 A 
ATOM     24  C   UNL     1       4.720   1.843  -2.606  1.00  0.00    +0.095 A 
ATOM     25  C   UNL     1       6.569   1.191  -1.733  1.00  0.00    -0.112 A 
ATOM     26  C   UNL     1       7.428   0.615  -0.785  1.00  0.00    -0.014 A 
ATOM     27  N   UNL     1       5.687   2.170  -3.476  1.00  0.00    -0.374 NA
ATOM     28  N   UNL     1       6.851   1.760  -2.927  1.00  0.00    -0.575 NA
ENDBRANCH  17  20
ENDBRANCH  13  14
ENDBRANCH   6  13
BRANCH   3  29
ATOM     29  C   UNL     1      -2.519  -4.733   0.114  1.00  0.00    +0.433 C 
ATOM     30  F   UNL     1      -3.567  -4.586  -0.747  1.00  0.00    -0.165 F 
ATOM     31  F   UNL     1      -1.675  -5.624  -0.486  1.00  0.00    -0.165 F 
ATOM     32  F   UNL     1      -3.023  -5.390   1.201  1.00  0.00    -0.165 F 
ENDBRANCH   3  29
TORSDOF 7
