REMARK SMILES CCOc1cc2c(cc1C/C=C/c1ccc(OC)cc1)OCO2
REMARK SMILES IDX 10 1 9 2 4 3 5 4 6 5 8 6 7 7 23 8 21 9 22 10 3 11 2 12 1 13
REMARK SMILES IDX 11 14 12 15 13 16 14 17 20 18 15 19 19 20 16 21 17 22 18 23
REMARK H PARENT
ROOT
ATOM      1  C   UNL     1      -0.750   0.328  -1.849  1.00  0.00    +0.067 C 
ENDROOT
BRANCH   1   2
ATOM      2  C   UNL     1      -1.779   1.139  -1.088  1.00  0.00    +0.002 A 
ATOM      3  C   UNL     1      -2.938   0.532  -0.534  1.00  0.00    +0.126 A 
ATOM      4  C   UNL     1      -3.863   1.305   0.180  1.00  0.00    +0.097 A 
ATOM      5  C   UNL     1      -3.604   2.652   0.330  1.00  0.00    +0.169 A 
ATOM      6  C   UNL     1      -1.550   2.516  -0.902  1.00  0.00    +0.058 A 
ATOM      7  C   UNL     1      -2.480   3.241  -0.193  1.00  0.00    +0.166 A 
ATOM      8  O   UNL     1      -4.394   3.540   0.993  1.00  0.00    -0.453 OA
ATOM      9  O   UNL     1      -2.417   4.572   0.074  1.00  0.00    -0.454 OA
ATOM     10  C   UNL     1      -3.632   4.755   0.829  1.00  0.00    +0.468 C 
BRANCH   3  11
ATOM     11  O   UNL     1      -3.061  -0.817  -0.750  1.00  0.00    -0.493 OA
BRANCH  11  12
ATOM     12  C   UNL     1      -4.179  -1.482  -0.166  1.00  0.00    +0.226 C 
ATOM     13  C   UNL     1      -4.074  -2.958  -0.509  1.00  0.00    +0.049 C 
ENDBRANCH  11  12
ENDBRANCH   3  11
ENDBRANCH   1   2
BRANCH   1  14
ATOM     14  C   UNL     1       0.303  -0.245  -0.942  1.00  0.00    -0.021 C 
ATOM     15  C   UNL     1       1.607   0.067  -1.013  1.00  0.00    +0.004 C 
BRANCH  15  16
ATOM     16  C   UNL     1       2.636  -0.497  -0.130  1.00  0.00    -0.026 A 
ATOM     17  C   UNL     1       3.910  -0.756  -0.649  1.00  0.00    +0.012 A 
ATOM     18  C   UNL     1       2.407  -0.734   1.229  1.00  0.00    +0.012 A 
ATOM     19  C   UNL     1       4.930  -1.267   0.165  1.00  0.00    +0.047 A 
ATOM     20  C   UNL     1       3.425  -1.243   2.042  1.00  0.00    +0.047 A 
ATOM     21  C   UNL     1       4.689  -1.515   1.516  1.00  0.00    +0.118 A 
BRANCH  21  22
ATOM     22  O   UNL     1       5.590  -2.010   2.417  1.00  0.00    -0.497 OA
ATOM     23  C   UNL     1       6.890  -2.311   1.926  1.00  0.00    +0.278 C 
ENDBRANCH  21  22
ENDBRANCH  15  16
ENDBRANCH   1  14
TORSDOF 6
