REMARK SMILES C[C@H](O)CNc1nccc(-n2ccnc2-c2ccc(NC(=O)c3cc(N4CCOCC4)cc(C(F)(F)F)c3)cc2)n1
REMARK SMILES IDX 6 1 7 2 8 3 9 4 10 5 41 6 5 7 4 9 2 10 1 11 3 12 11 14 12 15
REMARK SMILES IDX 15 16 13 17 14 18 16 19 17 20 40 21 18 22 39 23 19 24 20 25
REMARK SMILES IDX 21 26 22 27 23 29 24 30 38 31 25 32 33 33 32 34 26 35 27 36
REMARK SMILES IDX 31 37 28 38 30 39 29 40 34 41 35 42 36 43 37 44
REMARK H PARENT 5 8 3 13 20 28
ROOT
ATOM      1  C   UNL     1       6.361   1.125  -1.186  1.00  0.00    +0.224 A 
ATOM      2  N   UNL     1       5.478   1.983  -1.700  1.00  0.00    -0.222 NA
ATOM      3  C   UNL     1       4.341   2.173  -1.009  1.00  0.00    +0.119 A 
ATOM      4  C   UNL     1       4.045   1.528   0.167  1.00  0.00    +0.068 A 
ATOM      5  C   UNL     1       4.997   0.639   0.613  1.00  0.00    +0.143 A 
ATOM      6  N   UNL     1       6.165   0.451  -0.048  1.00  0.00    -0.195 NA
ENDROOT
BRANCH   1   7
ATOM      7  N   UNL     1       7.511   0.951  -1.899  1.00  0.00    -0.352 N 
ATOM      8  H   UNL     1       7.610   1.545  -2.708  1.00  0.00    +0.163 HD
BRANCH   7   9
ATOM      9  C   UNL     1       8.591   0.095  -1.455  1.00  0.00    +0.147 C 
BRANCH   9  10
ATOM     10  C   UNL     1       8.261  -1.388  -1.705  1.00  0.00    +0.130 C 
ATOM     11  C   UNL     1       9.433  -2.287  -1.341  1.00  0.00    +0.040 C 
BRANCH  10  12
ATOM     12  O   UNL     1       7.960  -1.584  -3.091  1.00  0.00    -0.392 OA
ATOM     13  H   UNL     1       7.268  -0.925  -3.293  1.00  0.00    +0.211 HD
ENDBRANCH  10  12
ENDBRANCH   9  10
ENDBRANCH   7   9
ENDBRANCH   1   7
BRANCH   5  14
ATOM     14  N   UNL     1       4.830  -0.096   1.828  1.00  0.00    -0.284 N 
ATOM     15  C   UNL     1       5.877  -0.714   2.489  1.00  0.00    +0.115 A 
ATOM     16  C   UNL     1       3.696  -0.344   2.605  1.00  0.00    +0.145 A 
ATOM     17  C   UNL     1       5.374  -1.149   3.686  1.00  0.00    +0.132 A 
ATOM     18  N   UNL     1       4.038  -0.892   3.762  1.00  0.00    -0.236 NA
BRANCH  16  19
ATOM     19  C   UNL     1       2.299  -0.116   2.232  1.00  0.00    +0.018 A 
ATOM     20  C   UNL     1       1.464   0.612   3.086  1.00  0.00    +0.014 A 
ATOM     21  C   UNL     1       1.757  -0.657   1.061  1.00  0.00    +0.014 A 
ATOM     22  C   UNL     1       0.123   0.830   2.752  1.00  0.00    +0.027 A 
ATOM     23  C   UNL     1       0.416  -0.432   0.725  1.00  0.00    +0.027 A 
ATOM     24  C   UNL     1      -0.411   0.315   1.565  1.00  0.00    +0.041 A 
BRANCH  24  25
ATOM     25  N   UNL     1      -1.769   0.588   1.299  1.00  0.00    -0.322 N 
ATOM     26  C   UNL     1      -2.508   0.176   0.204  1.00  0.00    +0.255 C 
ATOM     27  O   UNL     1      -2.132  -0.543  -0.713  1.00  0.00    -0.269 OA
ATOM     28  H   UNL     1      -2.257   1.109   2.015  1.00  0.00    +0.170 HD
BRANCH  26  29
ATOM     29  C   UNL     1      -3.917   0.659   0.184  1.00  0.00    +0.042 A 
ATOM     30  C   UNL     1      -4.912  -0.216  -0.274  1.00  0.00    +0.039 A 
ATOM     31  C   UNL     1      -4.255   1.954   0.582  1.00  0.00    +0.027 A 
ATOM     32  C   UNL     1      -6.263   0.159  -0.326  1.00  0.00    +0.038 A 
ATOM     33  C   UNL     1      -5.593   2.365   0.544  1.00  0.00    +0.058 A 
ATOM     34  C   UNL     1      -6.577   1.456   0.108  1.00  0.00    +0.039 A 
BRANCH  32  35
ATOM     35  N   UNL     1      -7.230  -0.736  -0.766  1.00  0.00    -0.367 N 
ATOM     36  C   UNL     1      -6.999  -1.445  -2.044  1.00  0.00    +0.145 C 
ATOM     37  C   UNL     1      -8.656  -0.531  -0.447  1.00  0.00    +0.145 C 
ATOM     38  C   UNL     1      -7.872  -2.707  -2.129  1.00  0.00    +0.181 C 
ATOM     39  C   UNL     1      -9.439  -1.842  -0.609  1.00  0.00    +0.181 C 
ATOM     40  O   UNL     1      -9.260  -2.408  -1.915  1.00  0.00    -0.378 OA
ENDBRANCH  32  35
BRANCH  33  41
ATOM     41  C   UNL     1      -5.981   3.751   0.993  1.00  0.00    +0.416 C 
ATOM     42  F   UNL     1      -5.015   4.678   0.741  1.00  0.00    -0.166 F 
ATOM     43  F   UNL     1      -6.211   3.808   2.334  1.00  0.00    -0.166 F 
ATOM     44  F   UNL     1      -7.112   4.218   0.396  1.00  0.00    -0.166 F 
ENDBRANCH  33  41
ENDBRANCH  26  29
ENDBRANCH  24  25
ENDBRANCH  16  19
ENDBRANCH   5  14
TORSDOF 10
