REMARK SMILES COc1cc2ncnc(N3CC[NH+](C(=O)Nc4ccc(C#N)cc4)CC3)c2cc1OC
REMARK SMILES IDX 3 1 4 2 5 3 6 4 7 5 8 6 9 7 27 8 28 9 29 10 2 11 1 12 30 13
REMARK SMILES IDX 31 14 10 15 11 16 26 17 12 18 25 19 13 20 14 22 15 23 16 24
REMARK SMILES IDX 17 26 18 27 24 28 19 29 23 30 20 31 21 32 22 33
REMARK H PARENT 13 21 16 25
ROOT
ATOM      1  C   UNL     1      -4.790   0.916  -1.482  1.00  0.00    +0.162 A 
ATOM      2  C   UNL     1      -3.696   0.366  -2.170  1.00  0.00    +0.079 A 
ATOM      3  C   UNL     1      -2.390   0.459  -1.699  1.00  0.00    +0.080 A 
ATOM      4  N   UNL     1      -1.399  -0.086  -2.414  1.00  0.00    -0.236 NA
ATOM      5  C   UNL     1      -0.160   0.022  -1.931  1.00  0.00    +0.224 A 
ATOM      6  N   UNL     1       0.197   0.587  -0.763  1.00  0.00    -0.219 NA
ATOM      7  C   UNL     1      -0.816   1.162  -0.070  1.00  0.00    +0.140 A 
ATOM      8  C   UNL     1      -2.157   1.118  -0.493  1.00  0.00    +0.047 A 
ATOM      9  C   UNL     1      -3.244   1.691   0.201  1.00  0.00    +0.064 A 
ATOM     10  C   UNL     1      -4.553   1.603  -0.284  1.00  0.00    +0.161 A 
ENDROOT
BRANCH   1  11
ATOM     11  O   UNL     1      -6.083   0.795  -1.911  1.00  0.00    -0.493 OA
ATOM     12  C   UNL     1      -6.334   0.132  -3.144  1.00  0.00    +0.278 C 
ENDBRANCH   1  11
BRANCH  10  13
ATOM     13  O   UNL     1      -5.456   2.211   0.545  1.00  0.00    -0.493 OA
ATOM     14  C   UNL     1      -6.733   2.550   0.018  1.00  0.00    +0.278 C 
ENDBRANCH  10  13
BRANCH   7  15
ATOM     15  N   UNL     1      -0.470   1.767   1.143  1.00  0.00    -0.345 N 
ATOM     16  C   UNL     1      -0.582   0.895   2.325  1.00  0.00    +0.180 C 
ATOM     17  C   UNL     1       0.707   2.658   1.124  1.00  0.00    +0.180 C 
ATOM     18  C   UNL     1       0.663  -0.021   2.461  1.00  0.00    +0.293 C 
ATOM     19  C   UNL     1       1.990   1.917   1.574  1.00  0.00    +0.293 C 
ATOM     20  N   UNL     1       1.752   0.430   1.517  1.00  0.00    -0.248 N 
ATOM     21  H   UNL     1       1.377   0.281   0.570  1.00  0.00    +0.358 HD
BRANCH  20  22
ATOM     22  C   UNL     1       2.959  -0.340   1.656  1.00  0.00    +0.419 C 
ATOM     23  O   UNL     1       3.571  -0.102   2.677  1.00  0.00    -0.207 OA
ATOM     24  N   UNL     1       3.242  -1.218   0.651  1.00  0.00    -0.275 N 
ATOM     25  H   UNL     1       2.596  -1.291  -0.123  1.00  0.00    +0.175 HD
BRANCH  24  26
ATOM     26  C   UNL     1       4.366  -2.070   0.570  1.00  0.00    +0.046 A 
ATOM     27  C   UNL     1       4.454  -2.906  -0.552  1.00  0.00    +0.028 A 
ATOM     28  C   UNL     1       5.379  -2.124   1.531  1.00  0.00    +0.028 A 
ATOM     29  C   UNL     1       5.535  -3.780  -0.710  1.00  0.00    +0.021 A 
ATOM     30  C   UNL     1       6.462  -3.000   1.373  1.00  0.00    +0.021 A 
ATOM     31  C   UNL     1       6.545  -3.830   0.253  1.00  0.00    +0.052 A 
ATOM     32  C   UNL     1       7.654  -4.725   0.095  1.00  0.00    +0.099 C 
ATOM     33  N   UNL     1       8.549  -5.450  -0.037  1.00  0.00    -0.192 NA
ENDBRANCH  24  26
ENDBRANCH  20  22
ENDBRANCH   7  15
TORSDOF 5
