REMARK SMILES Cn1cnc2c(NCCCO)nc(-c3cccc(-c4ccccc4)c3)nc21
REMARK SMILES IDX 8 1 7 2 6 4 2 5 3 6 27 7 4 8 26 9 5 10 13 11 12 12 1 13
REMARK SMILES IDX 14 14 15 15 25 16 16 17 18 18 17 19 19 20 20 21 24 22 21 23
REMARK SMILES IDX 23 24 22 25 9 26 10 27 11 28
REMARK H PARENT 7 3 11 29
ROOT
ATOM      1  C   UNL     1      -4.680   1.207   0.266  1.00  0.00    +0.117 C 
ENDROOT
BRANCH   1   2
ATOM      2  N   UNL     1      -4.336  -0.176   0.033  1.00  0.00    -0.368 N 
ATOM      3  H   UNL     1      -5.063  -0.869  -0.109  1.00  0.00    +0.162 HD
BRANCH   2   4
ATOM      4  C   UNL     1      -3.040  -0.645   0.043  1.00  0.00    +0.158 A 
ATOM      5  N   UNL     1      -1.440  -3.732  -0.337  1.00  0.00    -0.318 N 
ATOM      6  C   UNL     1      -2.742  -4.121  -0.488  1.00  0.00    +0.201 A 
ATOM      7  C   UNL     1      -1.428  -2.383  -0.123  1.00  0.00    +0.165 A 
ATOM      8  N   UNL     1      -3.572  -3.103  -0.384  1.00  0.00    -0.231 NA
ATOM      9  N   UNL     1      -0.364  -1.595   0.078  1.00  0.00    -0.208 NA
ATOM     10  C   UNL     1      -2.759  -2.008  -0.154  1.00  0.00    +0.150 A 
ATOM     11  C   UNL     1      -0.720  -0.304   0.262  1.00  0.00    +0.164 A 
ATOM     12  N   UNL     1      -1.986   0.196   0.235  1.00  0.00    -0.209 NA
ATOM     13  C   UNL     1      -0.279  -4.581  -0.389  1.00  0.00    +0.153 C 
BRANCH  11  14
ATOM     14  C   UNL     1       0.375   0.660   0.520  1.00  0.00    +0.020 A 
ATOM     15  C   UNL     1       0.118   1.962   0.984  1.00  0.00    +0.012 A 
ATOM     16  C   UNL     1       1.727   0.307   0.315  1.00  0.00    +0.020 A 
ATOM     17  C   UNL     1       1.153   2.867   1.226  1.00  0.00    +0.001 A 
ATOM     18  C   UNL     1       2.789   1.201   0.553  1.00  0.00    -0.018 A 
ATOM     19  C   UNL     1       2.477   2.488   1.012  1.00  0.00    +0.009 A 
BRANCH  18  20
ATOM     20  C   UNL     1       4.185   0.796   0.323  1.00  0.00    -0.018 A 
ATOM     21  C   UNL     1       5.149   0.911   1.339  1.00  0.00    +0.009 A 
ATOM     22  C   UNL     1       4.594   0.282  -0.918  1.00  0.00    +0.009 A 
ATOM     23  C   UNL     1       6.474   0.526   1.122  1.00  0.00    +0.001 A 
ATOM     24  C   UNL     1       5.920  -0.103  -1.138  1.00  0.00    +0.001 A 
ATOM     25  C   UNL     1       6.859   0.020  -0.117  1.00  0.00    +0.000 A 
ENDBRANCH  18  20
ENDBRANCH  11  14
ENDBRANCH   2   4
ENDBRANCH   1   2
BRANCH   1  26
ATOM     26  C   UNL     1      -4.957   1.946  -1.041  1.00  0.00    +0.049 C 
BRANCH  26  27
ATOM     27  C   UNL     1      -3.759   2.058  -1.974  1.00  0.00    +0.158 C 
BRANCH  27  28
ATOM     28  O   UNL     1      -2.643   2.629  -1.308  1.00  0.00    -0.396 OA
ATOM     29  H   UNL     1      -2.267   1.908  -0.760  1.00  0.00    +0.210 HD
ENDBRANCH  27  28
ENDBRANCH  26  27
ENDBRANCH   1  26
TORSDOF 7
