REMARK SMILES C=C1C([C@@H](C)[C@H]2CC=C(C)C(=O)O2)=CC[C@]2(C)[C@H]1C[C@]1(O)[C@H]3O[C@]34C=CC(=O)OC(C)(C)[C@@H]4[C@H](OC(C)=O)C[C@@H]21
REMARK SMILES IDX 1 1 2 2 3 3 14 4 15 5 16 6 17 7 18 8 19 9 20 10 40 11 4 12
REMARK SMILES IDX 5 13 6 14 7 15 13 16 8 17 11 18 9 19 12 20 10 21 39 22 34 23
REMARK SMILES IDX 35 25 36 26 38 27 37 28 21 29 22 31 23 32 24 33 25 34 26 35
REMARK SMILES IDX 33 37 30 39 31 40 32 41 29 42 27 43 28 44
REMARK H PARENT 21 30
REMARK Flexibility Score:   55.800
ROOT
ATOM      1  C   UNL     1       3.052  -2.646  -1.157  1.00  0.00    +0.013 C 
ATOM      2  C   UNL     1       2.497  -1.461  -0.840  1.00  0.00    -0.048 C 
ATOM      3  C   UNL     1       3.174  -0.171  -1.043  1.00  0.00    -0.043 C 
ATOM      4  C   UNL     1       2.462   0.971  -0.978  1.00  0.00    -0.022 C 
ATOM      5  C   UNL     1       1.000   1.037  -0.678  1.00  0.00    +0.035 C 
ATOM      6  C   UNL     1       0.510  -0.106   0.241  1.00  0.00    -0.016 C 
ATOM      7  C   UNL     1       0.975   0.161   1.687  1.00  0.00    +0.013 C 
ATOM      8  C   UNL     1       1.096  -1.468  -0.237  1.00  0.00    +0.028 C 
ATOM      9  C   UNL     1       0.012  -2.016  -1.174  1.00  0.00    +0.047 C 
ATOM     10  C   UNL     1      -1.279  -1.690  -0.419  1.00  0.00    +0.098 C 
ATOM     11  C   UNL     1      -1.057  -0.245   0.069  1.00  0.00    +0.034 C 
ENDROOT
BRANCH   3  12
ATOM     12  C   UNL     1       4.683  -0.130  -1.333  1.00  0.00    +0.057 C 
ATOM     13  C   UNL     1       4.911   0.022  -2.846  1.00  0.00    +0.017 C 
BRANCH  12  14
ATOM     14  C   UNL     1       5.484   0.942  -0.538  1.00  0.00    +0.187 C 
ATOM     15  C   UNL     1       5.321   0.789   0.975  1.00  0.00    +0.073 C 
ATOM     16  O   UNL     1       6.884   0.810  -0.890  1.00  0.00    -0.458 OA
ATOM     17  C   UNL     1       6.282   1.696   1.673  1.00  0.00    -0.012 C 
ATOM     18  C   UNL     1       7.812   1.559  -0.242  1.00  0.00    +0.333 C 
ATOM     19  C   UNL     1       7.427   2.089   1.093  1.00  0.00    +0.030 C 
ATOM     20  O   UNL     1       8.925   1.755  -0.714  1.00  0.00    -0.247 OA
ATOM     21  C   UNL     1       8.414   3.000   1.754  1.00  0.00    +0.052 C 
ENDBRANCH  12  14
ENDBRANCH   3  12
BRANCH  11  22
ATOM     22  C   UNL     1      -1.909   0.140   1.290  1.00  0.00    +0.053 C 
BRANCH  22  23
ATOM     23  C   UNL     1      -3.434   0.239   1.048  1.00  0.00    +0.187 CG1
ATOM     24  G   UNL     1      -4.118  -1.113   0.673  1.00  0.00    +0.000 G1
BRANCH  23  25
ATOM     25  O   UNL     1      -3.702   1.237   0.039  1.00  0.00    -0.462 OA
BRANCH  25  26
ATOM     26  C   UNL     1      -3.732   2.535   0.453  1.00  0.00    +0.302 C 
ATOM     27  O   UNL     1      -3.504   2.925   1.589  1.00  0.00    -0.253 OA
ATOM     28  C   UNL     1      -4.071   3.431  -0.698  1.00  0.00    +0.139 C 
ENDBRANCH  25  26
ENDBRANCH  23  25
ENDBRANCH  22  23
ENDBRANCH  11  22
BRANCH  10  29
ATOM     29  O   UNL     1      -1.371  -2.583   0.693  1.00  0.00    -0.387 OA
ATOM     30  H   UNL     1      -1.789  -3.399   0.357  1.00  0.00    +0.211 HD
ENDBRANCH  10  29
BRANCH  10  31
ATOM     31  C   UNL     1      -2.490  -1.804  -1.292  1.00  0.00    +0.188 C 
ATOM     32  O   UNL     1      -3.412  -2.836  -0.938  1.00  0.00    -0.358 OA
ATOM     33  C   UNL     1      -3.903  -1.480  -0.796  1.00  0.00    +0.127 C 
BRANCH  33  34
ATOM     34  C   UNL     1      -4.816  -0.946  -1.831  1.00  0.00    +0.019 C 
ATOM     35  C   UNL     1      -5.913  -0.184  -1.744  1.00  0.00    +0.092 CG0
ATOM     36  G   UNL     1      -6.577   0.427  -0.589  1.00  0.00    +0.000 G0
ENDBRANCH  33  34
BRANCH  33  37
ATOM     37  C   UNL     1      -4.118  -1.113   0.673  1.00  0.00    +0.112 CG1
ATOM     38  G   UNL     1      -3.434   0.239   1.048  1.00  0.00    +0.000 G1
BRANCH  37  39
ATOM     39  C   UNL     1      -5.625  -1.197   1.074  1.00  0.00    +0.116 C 
ATOM     40  C   UNL     1      -5.756  -1.188   2.618  1.00  0.00    +0.057 C 
ATOM     41  C   UNL     1      -6.333  -2.487   0.612  1.00  0.00    +0.057 C 
BRANCH  39  42
ATOM     42  O   UNL     1      -6.369  -0.027   0.657  1.00  0.00    -0.456 OA
BRANCH  42  43
ATOM     43  C   UNL     1      -6.577   0.427  -0.589  1.00  0.00    +0.331 CG0
ATOM     44  O   UNL     1      -7.336   1.371  -0.793  1.00  0.00    -0.247 OA
ATOM     45  G   UNL     1      -5.913  -0.184  -1.744  1.00  0.00    +0.000 G0
ENDBRANCH  42  43
ENDBRANCH  39  42
ENDBRANCH  37  39
ENDBRANCH  33  37
ENDBRANCH  10  31
TORSDOF 5
