REMARK SMILES CCCCc1nc(-c2ccccc2)c(C(=O)OCC)c(CC)c1C(=O)SCC
REMARK SMILES IDX 5 1 6 2 7 3 14 4 20 5 23 6 4 7 3 8 2 9 1 10 24 11 25 12
REMARK SMILES IDX 26 13 27 14 28 15 8 16 9 17 13 18 10 19 12 20 11 21 21 22
REMARK SMILES IDX 22 23 15 24 16 25 17 26 18 27 19 28
REMARK H PARENT
ROOT
ATOM      1  C   UNL     1       0.280   0.634  -1.073  1.00  0.00    +0.053 A 
ATOM      2  N   UNL     1      -1.062   0.424  -1.119  1.00  0.00    -0.251 NA
ATOM      3  C   UNL     1      -1.626  -0.451  -0.244  1.00  0.00    +0.085 A 
ATOM      4  C   UNL     1      -0.862  -1.110   0.724  1.00  0.00    +0.090 A 
ATOM      5  C   UNL     1       0.534  -0.915   0.785  1.00  0.00    -0.018 A 
ATOM      6  C   UNL     1       1.104  -0.032  -0.156  1.00  0.00    +0.054 A 
ENDROOT
BRANCH   1   7
ATOM      7  C   UNL     1       0.788   1.681  -2.037  1.00  0.00    +0.057 C 
BRANCH   7   8
ATOM      8  C   UNL     1       0.804   3.071  -1.395  1.00  0.00    +0.006 C 
BRANCH   8   9
ATOM      9  C   UNL     1       1.265   4.171  -2.354  1.00  0.00    -0.003 C 
ATOM     10  C   UNL     1       2.728   4.049  -2.752  1.00  0.00    +0.004 C 
ENDBRANCH   8   9
ENDBRANCH   7   8
ENDBRANCH   1   7
BRANCH   6  11
ATOM     11  C   UNL     1       2.547   0.263  -0.136  1.00  0.00    +0.221 C 
ATOM     12  O   UNL     1       3.003   1.101   0.627  1.00  0.00    -0.281 OA
BRANCH  11  13
ATOM     13  S   UNL     1       3.528  -0.669  -1.254  1.00  0.00    -0.083 SA
BRANCH  13  14
ATOM     14  C   UNL     1       5.143   0.095  -0.929  1.00  0.00    +0.075 C 
ATOM     15  C   UNL     1       6.204  -0.538  -1.812  1.00  0.00    +0.016 C 
ENDBRANCH  13  14
ENDBRANCH  11  13
ENDBRANCH   6  11
BRANCH   3  16
ATOM     16  C   UNL     1      -3.083  -0.608  -0.411  1.00  0.00    +0.001 A 
ATOM     17  C   UNL     1      -3.924   0.519  -0.391  1.00  0.00    +0.010 A 
ATOM     18  C   UNL     1      -3.675  -1.867  -0.611  1.00  0.00    +0.010 A 
ATOM     19  C   UNL     1      -5.307   0.390  -0.538  1.00  0.00    +0.001 A 
ATOM     20  C   UNL     1      -5.059  -1.997  -0.757  1.00  0.00    +0.001 A 
ATOM     21  C   UNL     1      -5.874  -0.868  -0.718  1.00  0.00    +0.000 A 
ENDBRANCH   3  16
BRANCH   5  22
ATOM     22  C   UNL     1       1.375  -1.616   1.832  1.00  0.00    +0.034 C 
ATOM     23  C   UNL     1       1.843  -2.995   1.389  1.00  0.00    +0.009 C 
ENDBRANCH   5  22
BRANCH   4  24
ATOM     24  C   UNL     1      -1.541  -1.973   1.700  1.00  0.00    +0.340 C 
ATOM     25  O   UNL     1      -1.508  -3.190   1.679  1.00  0.00    -0.246 OA
BRANCH  24  26
ATOM     26  O   UNL     1      -2.154  -1.176   2.606  1.00  0.00    -0.462 OA
BRANCH  26  27
ATOM     27  C   UNL     1      -2.895  -1.889   3.601  1.00  0.00    +0.230 C 
ATOM     28  C   UNL     1      -3.595  -0.875   4.485  1.00  0.00    +0.049 C 
ENDBRANCH  26  27
ENDBRANCH  24  26
ENDBRANCH   4  24
TORSDOF 11
