REMARK SMILES N#Cc1cccc(C(=O)Nc2cc(N3CCC([NH+]4CCCC4)CC3)cc(C(F)(F)F)c2)c1
REMARK SMILES IDX 11 1 12 2 13 3 25 4 26 5 31 6 10 7 8 8 9 9 7 11 1 12 2 13
REMARK SMILES IDX 3 14 4 15 32 16 5 17 6 18 14 19 15 20 24 21 16 22 23 23
REMARK SMILES IDX 17 24 18 25 19 26 22 27 20 28 21 29 27 31 28 32 29 33 30 34
REMARK H PARENT 10 10 18 30
ROOT
ATOM      1  C   UNL     1       2.078  -1.289  -0.598  1.00  0.00    +0.044 A 
ATOM      2  C   UNL     1       0.835  -1.054  -1.194  1.00  0.00    +0.052 A 
ATOM      3  C   UNL     1       0.091  -2.070  -1.808  1.00  0.00    +0.039 A 
ATOM      4  C   UNL     1       0.678  -3.339  -1.872  1.00  0.00    +0.039 A 
ATOM      5  C   UNL     1       1.959  -3.592  -1.349  1.00  0.00    +0.060 A 
ATOM      6  C   UNL     1       2.649  -2.556  -0.703  1.00  0.00    +0.039 A 
ENDROOT
BRANCH   1   7
ATOM      7  N   UNL     1       2.784  -0.295   0.114  1.00  0.00    -0.322 N 
ATOM      8  C   UNL     1       2.265   0.902   0.581  1.00  0.00    +0.255 C 
ATOM      9  O   UNL     1       1.079   1.226   0.587  1.00  0.00    -0.269 OA
ATOM     10  H   UNL     1       3.732  -0.530   0.384  1.00  0.00    +0.170 HD
BRANCH   8  11
ATOM     11  C   UNL     1       3.256   1.829   1.199  1.00  0.00    +0.041 A 
ATOM     12  N   UNL     1       2.874   5.076   4.767  1.00  0.00    -0.192 NA
ATOM     13  C   UNL     1       3.265   4.402   3.908  1.00  0.00    +0.099 C 
ATOM     14  C   UNL     1       3.717   3.556   2.842  1.00  0.00    +0.053 A 
ATOM     15  C   UNL     1       5.041   3.621   2.398  1.00  0.00    +0.019 A 
ATOM     16  C   UNL     1       2.825   2.662   2.241  1.00  0.00    +0.033 A 
ATOM     17  C   UNL     1       5.469   2.802   1.350  1.00  0.00    +0.002 A 
ATOM     18  C   UNL     1       4.579   1.911   0.746  1.00  0.00    +0.014 A 
ENDBRANCH   8  11
ENDBRANCH   1   7
BRANCH   3  19
ATOM     19  N   UNL     1      -1.189  -1.860  -2.309  1.00  0.00    -0.371 N 
ATOM     20  C   UNL     1      -2.275  -2.658  -1.748  1.00  0.00    +0.122 C 
ATOM     21  C   UNL     1      -1.589  -0.582  -2.887  1.00  0.00    +0.122 C 
ATOM     22  C   UNL     1      -2.828  -1.894  -0.549  1.00  0.00    +0.086 C 
ATOM     23  C   UNL     1      -2.244   0.301  -1.826  1.00  0.00    +0.086 C 
ATOM     24  C   UNL     1      -3.247  -0.472  -0.955  1.00  0.00    +0.187 C 
BRANCH  24  25
ATOM     25  N   UNL     1      -3.604   0.307   0.315  1.00  0.00    -0.332 N 
ATOM     26  C   UNL     1      -2.453   0.626   1.273  1.00  0.00    +0.262 C 
ATOM     27  C   UNL     1      -4.376   1.594   0.099  1.00  0.00    +0.262 C 
ATOM     28  C   UNL     1      -2.503   2.132   1.444  1.00  0.00    +0.067 C 
ATOM     29  C   UNL     1      -3.972   2.460   1.275  1.00  0.00    +0.067 C 
ATOM     30  H   UNL     1      -4.237  -0.302   0.851  1.00  0.00    +0.348 HD
ENDBRANCH  24  25
ENDBRANCH   3  19
BRANCH   5  31
ATOM     31  C   UNL     1       2.552  -4.976  -1.438  1.00  0.00    +0.416 C 
ATOM     32  F   UNL     1       2.104  -5.785  -0.440  1.00  0.00    -0.166 F 
ATOM     33  F   UNL     1       2.252  -5.610  -2.604  1.00  0.00    -0.166 F 
ATOM     34  F   UNL     1       3.911  -4.980  -1.346  1.00  0.00    -0.166 F 
ENDBRANCH   5  31
TORSDOF 5
