REMARK SMILES CCCC(=O)N(c1ccc(Nc2c3ccccc3nc3cc([N+](=O)[O-])ccc23)cc1)S(C)(=O)=O
REMARK SMILES IDX 7 1 8 2 9 3 10 4 29 5 30 6 6 7 4 8 5 9 3 10 2 11 1 12 31 13
REMARK SMILES IDX 33 14 34 15 32 16 11 17 12 19 13 20 28 21 14 22 18 23 27 24
REMARK SMILES IDX 20 25 15 26 17 27 19 28 26 29 21 30 16 31 22 32 23 33 24 34
REMARK SMILES IDX 25 35
REMARK H PARENT 11 18
ROOT
ATOM      1  C   UNL     1      -2.236  -1.115   0.519  1.00  0.00    +0.060 A 
ATOM      2  C   UNL     1      -1.857  -2.108  -0.385  1.00  0.00    +0.029 A 
ATOM      3  C   UNL     1      -0.601  -2.054  -0.997  1.00  0.00    +0.028 A 
ATOM      4  C   UNL     1       0.292  -1.012  -0.719  1.00  0.00    +0.039 A 
ATOM      5  C   UNL     1      -0.095  -0.033   0.206  1.00  0.00    +0.028 A 
ATOM      6  C   UNL     1      -1.349  -0.082   0.824  1.00  0.00    +0.029 A 
ENDROOT
BRANCH   1   7
ATOM      7  N   UNL     1      -3.513  -1.194   1.157  1.00  0.00    -0.207 N 
BRANCH   7   8
ATOM      8  C   UNL     1      -4.462  -0.168   0.886  1.00  0.00    +0.240 C 
ATOM      9  O   UNL     1      -5.267   0.202   1.735  1.00  0.00    -0.273 OA
BRANCH   8  10
ATOM     10  C   UNL     1      -4.423   0.465  -0.499  1.00  0.00    +0.101 C 
BRANCH  10  11
ATOM     11  C   UNL     1      -5.735   1.167  -0.845  1.00  0.00    +0.006 C 
ATOM     12  C   UNL     1      -5.703   1.749  -2.248  1.00  0.00    +0.004 C 
ENDBRANCH  10  11
ENDBRANCH   8  10
ENDBRANCH   7   8
BRANCH   7  13
ATOM     13  S   UNL     1      -3.644  -2.217   2.493  1.00  0.00    +0.238 S 
ATOM     14  O   UNL     1      -5.017  -2.665   2.601  1.00  0.00    -0.206 OA
ATOM     15  O   UNL     1      -2.571  -3.193   2.457  1.00  0.00    -0.206 OA
ATOM     16  C   UNL     1      -3.313  -1.116   3.856  1.00  0.00    +0.183 C 
ENDBRANCH   7  13
ENDBRANCH   1   7
BRANCH   4  17
ATOM     17  N   UNL     1       1.561  -1.019  -1.320  1.00  0.00    -0.354 N 
ATOM     18  H   UNL     1       1.666  -1.606  -2.140  1.00  0.00    +0.167 HD
BRANCH  17  19
ATOM     19  C   UNL     1       2.680  -0.185  -1.060  1.00  0.00    +0.057 A 
ATOM     20  C   UNL     1       3.094   0.748  -2.045  1.00  0.00    +0.024 A 
ATOM     21  C   UNL     1       3.401  -0.295   0.159  1.00  0.00    +0.025 A 
ATOM     22  C   UNL     1       2.440   0.927  -3.289  1.00  0.00    +0.012 A 
ATOM     23  C   UNL     1       4.211   1.548  -1.745  1.00  0.00    +0.073 A 
ATOM     24  C   UNL     1       3.098  -1.230   1.181  1.00  0.00    +0.019 A 
ATOM     25  C   UNL     1       4.497   0.571   0.337  1.00  0.00    +0.080 A 
ATOM     26  C   UNL     1       2.893   1.865  -4.215  1.00  0.00    +0.001 A 
ATOM     27  C   UNL     1       4.644   2.476  -2.683  1.00  0.00    +0.029 A 
ATOM     28  N   UNL     1       4.879   1.460  -0.586  1.00  0.00    -0.247 NA
ATOM     29  C   UNL     1       3.843  -1.285   2.358  1.00  0.00    +0.086 A 
ATOM     30  C   UNL     1       5.233   0.511   1.511  1.00  0.00    +0.114 A 
ATOM     31  C   UNL     1       4.002   2.641  -3.912  1.00  0.00    +0.002 A 
ATOM     32  C   UNL     1       4.912  -0.405   2.518  1.00  0.00    +0.271 A 
BRANCH  32  33
ATOM     33  N   UNL     1       5.709  -0.442   3.749  1.00  0.00    +0.062 N 
ATOM     34  O   UNL     1       6.662   0.344   3.844  1.00  0.00    -0.258 OA
ATOM     35  O   UNL     1       5.380  -1.256   4.623  1.00  0.00    -0.258 OA
ENDBRANCH  32  33
ENDBRANCH  17  19
ENDBRANCH   4  17
TORSDOF 8
