REMARK SMILES C[C@@H]1CC[C@]2(C(=O)[O-])CC[C@]3(C)C(=CC[C@@H]4[C@@]5(C)C[C@@H](O)[C@H](O)[C@@](C)(C(=O)[O-])[C@@H]5CC[C@]43C)[C@@H]2[C@]1(C)O
REMARK SMILES IDX 1 1 2 2 3 3 4 4 5 5 9 6 10 7 11 8 12 9 13 10 14 11 15 12
REMARK SMILES IDX 16 13 17 14 18 15 19 16 20 17 22 18 24 19 25 20 29 21 30 22
REMARK SMILES IDX 31 23 32 24 33 25 34 26 35 27 36 28 37 29 6 31 7 32 8 33
REMARK SMILES IDX 26 34 27 35 28 36 21 37 23 39
REMARK H PARENT 37 30 21 38 23 40
ROOT
ATOM      1  C   UNL     1       5.989   3.204  -0.880  1.00  0.00    +0.011 C 
ATOM      2  C   UNL     1       5.320   1.976  -0.244  1.00  0.00    +0.018 C 
ATOM      3  C   UNL     1       5.746   0.732  -1.045  1.00  0.00    +0.007 C 
ATOM      4  C   UNL     1       4.788  -0.450  -0.916  1.00  0.00    +0.014 C 
ATOM      5  C   UNL     1       4.052  -0.493   0.436  1.00  0.00    +0.019 C 
ATOM      6  C   UNL     1       3.198  -1.768   0.567  1.00  0.00    +0.015 C 
ATOM      7  C   UNL     1       2.065  -1.808  -0.453  1.00  0.00    +0.013 C 
ATOM      8  C   UNL     1       1.079  -0.600  -0.377  1.00  0.00    -0.006 C 
ATOM      9  C   UNL     1       0.951  -0.055  -1.829  1.00  0.00    +0.017 C 
ATOM     10  C   UNL     1       1.645   0.559   0.484  1.00  0.00    -0.061 C 
ATOM     11  C   UNL     1       0.817   1.317   1.235  1.00  0.00    -0.026 C 
ATOM     12  C   UNL     1      -0.673   1.218   1.313  1.00  0.00    +0.032 C 
ATOM     13  C   UNL     1      -1.307   0.178   0.369  1.00  0.00    +0.006 C 
ATOM     14  C   UNL     1      -2.859  -0.083   0.638  1.00  0.00    -0.023 C 
ATOM     15  C   UNL     1      -3.132  -0.619   2.067  1.00  0.00    +0.012 C 
ATOM     16  C   UNL     1      -3.627   1.264   0.488  1.00  0.00    +0.042 C 
ATOM     17  C   UNL     1      -5.143   1.100   0.448  1.00  0.00    +0.144 C 
ATOM     18  C   UNL     1      -5.604   0.149  -0.662  1.00  0.00    +0.155 C 
ATOM     19  C   UNL     1      -4.915  -1.238  -0.609  1.00  0.00    +0.039 C 
ATOM     20  C   UNL     1      -5.517  -2.179   0.445  1.00  0.00    +0.021 C 
ATOM     21  C   UNL     1      -3.363  -1.055  -0.493  1.00  0.00    +0.010 C 
ATOM     22  C   UNL     1      -2.559  -2.371  -0.459  1.00  0.00    +0.006 C 
ATOM     23  C   UNL     1      -1.075  -2.110  -0.745  1.00  0.00    +0.008 C 
ATOM     24  C   UNL     1      -0.380  -1.088   0.208  1.00  0.00    -0.020 C 
ATOM     25  C   UNL     1      -0.161  -1.801   1.578  1.00  0.00    +0.012 C 
ATOM     26  C   UNL     1       3.182   0.787   0.634  1.00  0.00    +0.059 C 
ATOM     27  C   UNL     1       3.772   2.070  -0.112  1.00  0.00    +0.072 C 
ATOM     28  C   UNL     1       3.373   3.369   0.615  1.00  0.00    +0.043 C 
ENDROOT
BRANCH  27  29
ATOM     29  O   UNL     1       3.238   2.193  -1.441  1.00  0.00    -0.389 OA
ATOM     30  H   UNL     1       2.270   2.182  -1.339  1.00  0.00    +0.211 HD
ENDBRANCH  27  29
BRANCH   5  31
ATOM     31  C   UNL     1       5.148  -0.714   1.542  1.00  0.00    +0.048 C 
ATOM     32  O   UNL     1       5.979  -1.645   1.320  1.00  0.00    -0.550 OA
ATOM     33  O   UNL     1       5.107   0.059   2.541  1.00  0.00    -0.550 OA
ENDBRANCH   5  31
BRANCH  19  34
ATOM     34  C   UNL     1      -5.377  -1.802  -1.998  1.00  0.00    +0.050 C 
ATOM     35  O   UNL     1      -4.481  -2.030  -2.853  1.00  0.00    -0.549 OA
ATOM     36  O   UNL     1      -6.636  -1.924  -2.131  1.00  0.00    -0.549 OA
ENDBRANCH  19  34
BRANCH  17  37
ATOM     37  O   UNL     1      -5.749   2.387   0.236  1.00  0.00    -0.390 OA
ATOM     38  H   UNL     1      -6.658   2.157  -0.051  1.00  0.00    +0.211 HD
ENDBRANCH  17  37
BRANCH  18  39
ATOM     39  O   UNL     1      -7.042   0.075  -0.534  1.00  0.00    -0.389 OA
ATOM     40  H   UNL     1      -7.290  -0.649  -1.169  1.00  0.00    +0.211 HD
ENDBRANCH  18  39
TORSDOF 5
