REMARK SMILES COC(=O)CCCC=C(c1cc(Cl)c(OC)c(C(=O)SC)c1)c1cc(Cl)c(OC)c(C(=O)SC)c1
REMARK SMILES IDX 7 1 6 2 5 3 3 4 4 5 2 6 1 7 8 8 9 9 10 10 11 11 22 12 12 13
REMARK SMILES IDX 17 14 14 15 13 16 18 17 19 18 20 19 21 20 15 21 16 22 23 23
REMARK SMILES IDX 24 24 35 25 25 26 30 27 27 28 26 29 31 30 32 31 33 32 34 33
REMARK SMILES IDX 28 34 29 35
REMARK H PARENT
ROOT
ATOM      1  C   UNL     1      -0.138   2.611  -0.496  1.00  0.00    +0.028 C 
ENDROOT
BRANCH   1   2
ATOM      2  C   UNL     1      -0.284   3.198   0.911  1.00  0.00    +0.016 C 
BRANCH   2   3
ATOM      3  C   UNL     1      -1.517   4.094   1.028  1.00  0.00    +0.123 C 
BRANCH   3   4
ATOM      4  C   UNL     1      -2.799   3.297   0.935  1.00  0.00    +0.305 C 
ATOM      5  O   UNL     1      -2.972   2.195   1.437  1.00  0.00    -0.252 OA
BRANCH   4   6
ATOM      6  O   UNL     1      -3.728   3.988   0.219  1.00  0.00    -0.469 OA
ATOM      7  C   UNL     1      -4.961   3.289   0.040  1.00  0.00    +0.282 C 
ENDBRANCH   4   6
ENDBRANCH   3   4
ENDBRANCH   2   3
ENDBRANCH   1   2
BRANCH   1   8
ATOM      8  C   UNL     1       0.944   1.563  -0.564  1.00  0.00    -0.018 C 
ATOM      9  C   UNL     1       0.812   0.235  -0.346  1.00  0.00    -0.015 C 
BRANCH   9  10
ATOM     10  C   UNL     1       2.028  -0.611  -0.454  1.00  0.00    -0.016 A 
ATOM     11  C   UNL     1       2.013  -1.755  -1.263  1.00  0.00    +0.033 A 
ATOM     12  C   UNL     1       3.185  -0.315   0.278  1.00  0.00    +0.025 A 
ATOM     13  C   UNL     1       3.147  -2.567  -1.371  1.00  0.00    +0.084 A 
ATOM     14  C   UNL     1       4.314  -1.143   0.187  1.00  0.00    +0.073 A 
ATOM     15  C   UNL     1       4.317  -2.248  -0.672  1.00  0.00    +0.149 A 
ATOM     16 Cl   UNL     1       3.058  -3.958  -2.391  1.00  0.00    -0.080 Cl
BRANCH  14  17
ATOM     17  C   UNL     1       5.488  -0.772   0.993  1.00  0.00    +0.222 C 
ATOM     18  O   UNL     1       6.034   0.310   0.823  1.00  0.00    -0.281 OA
BRANCH  17  19
ATOM     19  S   UNL     1       5.964  -1.905   2.245  1.00  0.00    -0.086 SA
ATOM     20  C   UNL     1       7.463  -1.086   2.827  1.00  0.00    +0.094 C 
ENDBRANCH  17  19
ENDBRANCH  14  17
BRANCH  15  21
ATOM     21  O   UNL     1       5.430  -3.039  -0.789  1.00  0.00    -0.494 OA
ATOM     22  C   UNL     1       6.288  -2.553  -1.824  1.00  0.00    +0.278 C 
ENDBRANCH  15  21
ENDBRANCH   9  10
BRANCH   9  23
ATOM     23  C   UNL     1      -0.507  -0.320   0.033  1.00  0.00    -0.016 A 
ATOM     24  C   UNL     1      -0.734  -0.716   1.357  1.00  0.00    +0.033 A 
ATOM     25  C   UNL     1      -1.533  -0.453  -0.908  1.00  0.00    +0.025 A 
ATOM     26  C   UNL     1      -1.987  -1.197   1.749  1.00  0.00    +0.084 A 
ATOM     27  C   UNL     1      -2.789  -0.931  -0.510  1.00  0.00    +0.073 A 
ATOM     28  C   UNL     1      -3.036  -1.271   0.825  1.00  0.00    +0.149 A 
ATOM     29 Cl   UNL     1      -2.178  -1.715   3.386  1.00  0.00    -0.080 Cl
BRANCH  27  30
ATOM     30  C   UNL     1      -3.858  -1.039  -1.516  1.00  0.00    +0.222 C 
ATOM     31  O   UNL     1      -4.810  -0.271  -1.523  1.00  0.00    -0.281 OA
BRANCH  30  32
ATOM     32  S   UNL     1      -3.632  -2.304  -2.713  1.00  0.00    -0.086 SA
ATOM     33  C   UNL     1      -5.262  -2.259  -3.489  1.00  0.00    +0.094 C 
ENDBRANCH  30  32
ENDBRANCH  27  30
BRANCH  28  34
ATOM     34  O   UNL     1      -4.266  -1.759   1.186  1.00  0.00    -0.494 OA
ATOM     35  C   UNL     1      -5.073  -0.712   1.735  1.00  0.00    +0.278 C 
ENDBRANCH  28  34
ENDBRANCH   9  23
ENDBRANCH   1   8
TORSDOF 13
