REMARK SMILES C[C@@H]1C[C@H]2O[C@@]3(C[C@@H]2C(C)(C)O)[C@H](O)[C@@]2(C)[C@@H]4CC[C@H]5C(C)(C)[C@@H](O[C@@H]6OC[C@H](O)[C@H](O)[C@H]6O)CC[C@@]56C[C@@]46CC[C@]2(C)[C@@H]13
REMARK SMILES IDX 1 1 2 2 3 3 4 4 5 5 6 6 7 7 8 8 13 9 15 10 16 11 17 12 18 13
REMARK SMILES IDX 19 14 20 15 21 16 22 17 23 18 24 19 35 20 36 21 37 22 38 23
REMARK SMILES IDX 39 24 40 25 41 26 42 27 43 28 44 29 9 30 10 31 11 32 12 33
REMARK SMILES IDX 14 35 25 37 26 38 27 39 33 40 28 41 31 42 29 43 34 44 32 46
REMARK SMILES IDX 30 48
REMARK H PARENT 12 34 14 36 34 45 32 47 30 49
ROOT
ATOM      1  C   UNL     1      -5.028  -1.976  -3.059  1.00  0.00    +0.008 C 
ATOM      2  C   UNL     1      -5.135  -1.590  -1.585  1.00  0.00    -0.005 C 
ATOM      3  C   UNL     1      -6.574  -1.132  -1.245  1.00  0.00    +0.036 C 
ATOM      4  C   UNL     1      -6.694  -0.581   0.197  1.00  0.00    +0.125 C 
ATOM      5  O   UNL     1      -5.423  -0.726   0.850  1.00  0.00    -0.368 OA
ATOM      6  C   UNL     1      -4.570   0.210   0.136  1.00  0.00    +0.099 C 
ATOM      7  C   UNL     1      -5.493   1.415  -0.162  1.00  0.00    +0.048 C 
ATOM      8  C   UNL     1      -6.887   0.940   0.275  1.00  0.00    +0.052 C 
ATOM      9  C   UNL     1      -3.290   0.466   0.971  1.00  0.00    +0.153 C 
ATOM     10  C   UNL     1      -2.137   0.375  -0.061  1.00  0.00    +0.005 C 
ATOM     11  C   UNL     1      -2.061   1.721  -0.849  1.00  0.00    +0.015 C 
ATOM     12  C   UNL     1      -0.748   0.044   0.555  1.00  0.00    +0.005 C 
ATOM     13  C   UNL     1      -0.113   1.204   1.335  1.00  0.00    +0.005 C 
ATOM     14  C   UNL     1       1.223   0.786   1.944  1.00  0.00    +0.005 C 
ATOM     15  C   UNL     1       2.260   0.571   0.833  1.00  0.00    +0.004 C 
ATOM     16  C   UNL     1       3.698   0.189   1.331  1.00  0.00    -0.006 C 
ATOM     17  C   UNL     1       3.725  -1.149   2.102  1.00  0.00    +0.014 C 
ATOM     18  C   UNL     1       4.234   1.273   2.299  1.00  0.00    +0.014 C 
ATOM     19  C   UNL     1       4.651   0.145   0.089  1.00  0.00    +0.127 C 
ATOM     20  C   UNL     1       4.128  -0.773  -1.020  1.00  0.00    +0.033 C 
ATOM     21  C   UNL     1       2.721  -0.388  -1.456  1.00  0.00    +0.010 C 
ATOM     22  C   UNL     1       1.770  -0.380  -0.269  1.00  0.00    -0.020 C 
ATOM     23  C   UNL     1       1.103  -1.690   0.059  1.00  0.00    +0.015 C 
ATOM     24  C   UNL     1       0.239  -0.561  -0.485  1.00  0.00    -0.020 C 
ATOM     25  C   UNL     1      -0.249  -0.697  -1.933  1.00  0.00    +0.008 C 
ATOM     26  C   UNL     1      -1.748  -0.929  -2.182  1.00  0.00    +0.008 C 
ATOM     27  C   UNL     1      -2.623  -0.851  -0.928  1.00  0.00    -0.018 C 
ATOM     28  C   UNL     1      -2.534  -2.229  -0.209  1.00  0.00    +0.012 C 
ATOM     29  C   UNL     1      -4.122  -0.486  -1.189  1.00  0.00    +0.033 C 
ENDROOT
BRANCH   8  30
ATOM     30  C   UNL     1      -7.237   1.455   1.711  1.00  0.00    +0.065 C 
ATOM     31  C   UNL     1      -7.481   2.972   1.704  1.00  0.00    +0.042 C 
ATOM     32  C   UNL     1      -8.485   0.773   2.288  1.00  0.00    +0.042 C 
BRANCH  30  33
ATOM     33  O   UNL     1      -6.148   1.210   2.613  1.00  0.00    -0.390 OA
ATOM     34  H   UNL     1      -5.939   0.256   2.541  1.00  0.00    +0.211 HD
ENDBRANCH  30  33
ENDBRANCH   8  30
BRANCH   9  35
ATOM     35  O   UNL     1      -3.323   1.685   1.697  1.00  0.00    -0.390 OA
ATOM     36  H   UNL     1      -4.142   1.675   2.236  1.00  0.00    +0.211 HD
ENDBRANCH   9  35
BRANCH  19  37
ATOM     37  O   UNL     1       5.945  -0.325   0.490  1.00  0.00    -0.346 OA
BRANCH  37  38
ATOM     38  C   UNL     1       7.023   0.477   0.001  1.00  0.00    +0.281 C 
ATOM     39  O   UNL     1       7.090   0.497  -1.428  1.00  0.00    -0.347 OA
ATOM     40  C   UNL     1       8.323  -0.036   0.667  1.00  0.00    +0.202 C 
ATOM     41  C   UNL     1       7.863  -0.575  -1.961  1.00  0.00    +0.198 C 
ATOM     42  C   UNL     1       9.507   0.288  -0.238  1.00  0.00    +0.179 C 
ATOM     43  C   UNL     1       9.342  -0.435  -1.582  1.00  0.00    +0.171 C 
BRANCH  40  44
ATOM     44  O   UNL     1       8.529   0.562   1.959  1.00  0.00    -0.385 OA
ATOM     45  H   UNL     1       7.748   0.313   2.491  1.00  0.00    +0.211 HD
ENDBRANCH  40  44
BRANCH  42  46
ATOM     46  O   UNL     1      10.740  -0.121   0.380  1.00  0.00    -0.387 OA
ATOM     47  H   UNL     1      10.665   0.184   1.308  1.00  0.00    +0.211 HD
ENDBRANCH  42  46
BRANCH  43  48
ATOM     48  O   UNL     1       9.935  -1.738  -1.514  1.00  0.00    -0.388 OA
ATOM     49  H   UNL     1      10.712  -1.624  -0.924  1.00  0.00    +0.211 HD
ENDBRANCH  43  48
ENDBRANCH  37  38
ENDBRANCH  19  37
TORSDOF 8
