REMARK SMILES [NH3+][C@H](CNc1nnc(-c2ccc3[n-]ncc3c2)s1)Cc1ccc(F)cc1
REMARK SMILES IDX 2 1 1 2 3 6 4 7 5 9 6 10 18 11 7 12 8 13 9 14 10 15 17 16
REMARK SMILES IDX 11 17 16 18 12 19 15 20 13 21 14 22 19 23 20 24 21 25 26 26
REMARK SMILES IDX 22 27 25 28 23 29 24 30
REMARK H PARENT 1 3 1 4 1 5 4 8
ROOT
ATOM      1  C   UNL     1      -0.148  -1.160  -0.223  1.00  0.00    +0.204 C 
ENDROOT
BRANCH   1   2
ATOM      2  N   UNL     1       1.243  -1.230   0.261  1.00  0.00    -0.353 N 
ATOM      3  H   UNL     1       1.536  -0.545   0.963  1.00  0.00    +0.344 HD
ATOM      4  H   UNL     1       1.666  -2.138   0.457  1.00  0.00    +0.344 HD
ATOM      5  H   UNL     1       1.948  -0.935  -0.513  1.00  0.00    +0.344 HD
ENDBRANCH   1   2
BRANCH   1   6
ATOM      6  C   UNL     1      -0.641   0.317  -0.265  1.00  0.00    +0.180 C 
BRANCH   6   7
ATOM      7  N   UNL     1      -0.605   0.999   1.032  1.00  0.00    -0.354 N 
ATOM      8  H   UNL     1      -0.774   0.473   1.882  1.00  0.00    +0.163 HD
BRANCH   7   9
ATOM      9  C   UNL     1      -0.192   2.283   1.185  1.00  0.00    +0.206 A 
ATOM     10  N   UNL     1       0.238   2.807   2.322  1.00  0.00    -0.120 NA
ATOM     11  S   UNL     1      -0.082   3.488  -0.076  1.00  0.00    -0.075 S 
ATOM     12  N   UNL     1       1.043   3.932   2.089  1.00  0.00    -0.136 NA
ATOM     13  C   UNL     1       1.387   3.947   0.806  1.00  0.00    +0.149 A 
BRANCH  13  14
ATOM     14  C   UNL     1       2.683   3.401   0.288  1.00  0.00    +0.013 A 
ATOM     15  C   UNL     1       3.491   2.749   1.256  1.00  0.00    +0.010 A 
ATOM     16  C   UNL     1       2.743   2.993  -1.064  1.00  0.00    +0.019 A 
ATOM     17  C   UNL     1       4.001   1.465   1.019  1.00  0.00    -0.014 A 
ATOM     18  C   UNL     1       3.066   1.649  -1.197  1.00  0.00    -0.022 A 
ATOM     19  C   UNL     1       3.611   0.862  -0.185  1.00  0.00    -0.114 A 
ATOM     20  C   UNL     1       2.837   0.735  -2.189  1.00  0.00    +0.092 A 
ATOM     21  N   UNL     1       3.511  -0.450  -0.516  1.00  0.00    -0.575 NA
ATOM     22  N   UNL     1       2.857  -0.522  -1.694  1.00  0.00    -0.374 NA
ENDBRANCH  13  14
ENDBRANCH   7   9
ENDBRANCH   6   7
ENDBRANCH   1   6
BRANCH   1  23
ATOM     23  C   UNL     1      -1.009  -2.079   0.661  1.00  0.00    +0.102 C 
BRANCH  23  24
ATOM     24  C   UNL     1      -2.425  -2.235   0.161  1.00  0.00    -0.042 A 
ATOM     25  C   UNL     1      -3.485  -1.578   0.807  1.00  0.00    +0.007 A 
ATOM     26  C   UNL     1      -2.696  -3.029  -0.964  1.00  0.00    +0.007 A 
ATOM     27  C   UNL     1      -4.790  -1.710   0.331  1.00  0.00    +0.039 A 
ATOM     28  C   UNL     1      -4.003  -3.159  -1.437  1.00  0.00    +0.039 A 
ATOM     29  C   UNL     1      -5.037  -2.499  -0.786  1.00  0.00    +0.123 A 
ATOM     30  F   UNL     1      -6.290  -2.624  -1.241  1.00  0.00    -0.207 F 
ENDBRANCH  23  24
ENDBRANCH   1  23
TORSDOF 7
