REMARK SMILES c1ccc(-c2cncc(O[C@@H]3CC[NH2+]C3)c2)cc1
REMARK SMILES IDX 10 1 9 2 5 3 6 4 16 5 7 6 8 7 4 8 1 9 2 10 18 11 3 12 17 13
REMARK SMILES IDX 11 14 12 15 15 16 13 17 14 18
REMARK H PARENT 14 19 14 20
ROOT
ATOM      1  O   UNL     1       1.684  -0.373   0.151  1.00  0.00    -0.483 OA
ENDROOT
BRANCH   1   2
ATOM      2  C   UNL     1       0.627   0.344   0.633  1.00  0.00    +0.138 A 
ATOM      3  C   UNL     1      -1.802   0.522   0.685  1.00  0.00    +0.004 A 
ATOM      4  C   UNL     1      -1.626   1.649   1.487  1.00  0.00    +0.120 A 
ATOM      5  C   UNL     1      -0.633  -0.125   0.257  1.00  0.00    +0.058 A 
ATOM      6  N   UNL     1      -0.422   2.139   1.868  1.00  0.00    -0.260 NA
ATOM      7  C   UNL     1       0.672   1.476   1.434  1.00  0.00    +0.157 A 
BRANCH   3   8
ATOM      8  C   UNL     1      -3.137   0.037   0.311  1.00  0.00    -0.017 A 
ATOM      9  C   UNL     1      -5.700  -0.895  -0.405  1.00  0.00    +0.000 A 
ATOM     10  C   UNL     1      -5.382  -0.687   0.934  1.00  0.00    +0.001 A 
ATOM     11  C   UNL     1      -4.749  -0.642  -1.390  1.00  0.00    +0.001 A 
ATOM     12  C   UNL     1      -4.112  -0.224   1.289  1.00  0.00    +0.009 A 
ATOM     13  C   UNL     1      -3.479  -0.180  -1.035  1.00  0.00    +0.009 A 
ENDBRANCH   3   8
ENDBRANCH   1   2
BRANCH   1  14
ATOM     14  C   UNL     1       2.996  -0.033   0.613  1.00  0.00    +0.233 C 
ATOM     15  C   UNL     1       3.619   1.032  -0.278  1.00  0.00    +0.112 C 
ATOM     16  C   UNL     1       3.903  -1.233   0.333  1.00  0.00    +0.306 C 
ATOM     17  C   UNL     1       3.928   0.288  -1.566  1.00  0.00    +0.264 C 
ATOM     18  N   UNL     1       4.210  -1.123  -1.140  1.00  0.00    -0.343 N 
ATOM     19  H   UNL     1       3.590  -1.760  -1.662  1.00  0.00    +0.346 HD
ATOM     20  H   UNL     1       5.176  -1.407  -1.349  1.00  0.00    +0.346 HD
ENDBRANCH   1  14
TORSDOF 3
