REMARK SMILES CC#C[C@@]1(O)CC[C@@]2(CC)c3ccc([O-])cc3CC[C@@H]2C1
REMARK SMILES IDX 3 1 4 2 6 3 7 4 8 5 11 6 12 7 13 8 14 9 15 10 16 11 17 12
REMARK SMILES IDX 18 13 19 14 20 15 21 16 2 17 1 18 5 19 9 21 10 22
REMARK H PARENT 5 20
ROOT
ATOM      1  C   UNL     1       3.265   0.050   0.117  1.00  0.00    -0.069 C 
ATOM      2  C   UNL     1       2.451  -1.121  -0.272  1.00  0.00    +0.125 C 
ATOM      3  C   UNL     1       1.677  -1.674   0.930  1.00  0.00    +0.050 C 
ATOM      4  C   UNL     1       0.490  -0.795   1.341  1.00  0.00    +0.016 C 
ATOM      5  C   UNL     1      -0.517  -0.536   0.181  1.00  0.00    -0.002 C 
ATOM      6  C   UNL     1      -1.612   0.471   0.567  1.00  0.00    -0.038 A 
ATOM      7  C   UNL     1      -2.155   0.514   1.858  1.00  0.00    +0.004 A 
ATOM      8  C   UNL     1      -3.184   1.411   2.192  1.00  0.00    -0.008 A 
ATOM      9  C   UNL     1      -3.742   2.317   1.281  1.00  0.00    -0.109 A 
ATOM     10  O   UNL     1      -4.675   3.128   1.592  1.00  0.00    -0.872 OA
ATOM     11  C   UNL     1      -3.178   2.256  -0.004  1.00  0.00    -0.005 A 
ATOM     12  C   UNL     1      -2.142   1.366  -0.379  1.00  0.00    -0.045 A 
ATOM     13  C   UNL     1      -1.614   1.491  -1.786  1.00  0.00    +0.036 C 
ATOM     14  C   UNL     1      -0.572   0.451  -2.183  1.00  0.00    +0.009 C 
ATOM     15  C   UNL     1       0.319   0.097  -0.990  1.00  0.00    +0.004 C 
ATOM     16  C   UNL     1       1.506  -0.776  -1.432  1.00  0.00    +0.053 C 
ENDROOT
BRANCH   1  17
ATOM     17  C   UNL     1       3.915   1.010   0.433  1.00  0.00    -0.104 C 
ATOM     18  C   UNL     1       4.682   2.190   0.831  1.00  0.00    +0.107 C 
ENDBRANCH   1  17
BRANCH   2  19
ATOM     19  O   UNL     1       3.346  -2.143  -0.720  1.00  0.00    -0.378 OA
ATOM     20  H   UNL     1       3.932  -1.725  -1.374  1.00  0.00    +0.212 HD
ENDBRANCH   2  19
BRANCH   5  21
ATOM     21  C   UNL     1      -1.221  -1.865  -0.274  1.00  0.00    +0.008 C 
ATOM     22  C   UNL     1      -1.880  -2.705   0.818  1.00  0.00    +0.005 C 
ENDBRANCH   5  21
TORSDOF 3
