REMARK SMILES CC(=O)O[C@@H]1C[C@@]23C[C@@]24CC[C@H](O)C(C)(C)[C@@H]4CC[C@H]3[C@]2(C)C[C@@H]3O[C@@]4(CC[C@@]5(C)O[C@@H]45)C[C@@H](C)[C@@H]3[C@@]12C
REMARK SMILES IDX 5 1 6 2 7 3 8 4 9 5 10 6 11 7 12 8 14 9 15 10 16 11 17 12
REMARK SMILES IDX 18 13 19 14 20 15 21 16 22 17 23 18 24 19 25 20 26 21 27 22
REMARK SMILES IDX 28 23 29 24 30 25 31 26 32 27 33 28 34 29 35 30 36 31 37 32
REMARK SMILES IDX 38 33 4 34 2 35 3 36 1 37 13 38
REMARK H PARENT 13 39
ROOT
ATOM      1  C   UNL     1      -0.098   2.099  -0.276  1.00  0.00    +0.184 C 
ATOM      2  C   UNL     1      -1.605   1.738  -0.183  1.00  0.00    +0.053 C 
ATOM      3  C   UNL     1      -1.977   0.277   0.112  1.00  0.00    -0.016 C 
ATOM      4  C   UNL     1      -2.522  -0.029   1.497  1.00  0.00    +0.016 C 
ATOM      5  C   UNL     1      -3.484  -0.037   0.335  1.00  0.00    -0.020 C 
ATOM      6  C   UNL     1      -4.503   1.101   0.284  1.00  0.00    +0.010 C 
ATOM      7  C   UNL     1      -5.950   0.607   0.383  1.00  0.00    +0.033 C 
ATOM      8  C   UNL     1      -6.073  -0.620   1.285  1.00  0.00    +0.120 C 
ATOM      9  C   UNL     1      -5.273  -1.843   0.714  1.00  0.00    -0.006 C 
ATOM     10  C   UNL     1      -4.841  -2.789   1.852  1.00  0.00    +0.014 C 
ATOM     11  C   UNL     1      -6.235  -2.648  -0.198  1.00  0.00    +0.014 C 
ATOM     12  C   UNL     1      -4.066  -1.356  -0.175  1.00  0.00    +0.004 C 
ATOM     13  C   UNL     1      -3.003  -2.424  -0.472  1.00  0.00    +0.005 C 
ATOM     14  C   UNL     1      -1.881  -1.831  -1.321  1.00  0.00    +0.005 C 
ATOM     15  C   UNL     1      -1.073  -0.820  -0.494  1.00  0.00    +0.003 C 
ATOM     16  C   UNL     1       0.157  -0.231  -1.234  1.00  0.00    -0.017 C 
ATOM     17  C   UNL     1      -0.243   0.255  -2.662  1.00  0.00    +0.012 C 
ATOM     18  C   UNL     1       1.311  -1.235  -1.420  1.00  0.00    +0.040 C 
ATOM     19  C   UNL     1       2.580  -0.371  -1.542  1.00  0.00    +0.123 C 
ATOM     20  O   UNL     1       3.592  -0.953  -0.730  1.00  0.00    -0.369 OA
ATOM     21  C   UNL     1       4.845  -0.263  -0.754  1.00  0.00    +0.098 C 
ATOM     22  C   UNL     1       5.776  -0.933  -1.795  1.00  0.00    +0.041 C 
ATOM     23  C   UNL     1       6.393  -2.133  -1.054  1.00  0.00    +0.041 C 
ATOM     24  C   UNL     1       6.449  -1.705   0.380  1.00  0.00    +0.095 C 
ATOM     25  C   UNL     1       6.720  -2.688   1.457  1.00  0.00    +0.045 C 
ATOM     26  O   UNL     1       6.946  -0.380   0.620  1.00  0.00    -0.363 OA
ATOM     27  C   UNL     1       5.521  -0.555   0.568  1.00  0.00    +0.182 C 
ATOM     28  C   UNL     1       4.696   1.246  -0.988  1.00  0.00    +0.042 C 
ATOM     29  C   UNL     1       3.387   1.771  -0.374  1.00  0.00    -0.005 C 
ATOM     30  C   UNL     1       3.334   3.290  -0.534  1.00  0.00    +0.008 C 
ATOM     31  C   UNL     1       2.202   1.065  -1.074  1.00  0.00    +0.031 C 
ATOM     32  C   UNL     1       0.837   0.864  -0.324  1.00  0.00    +0.016 C 
ATOM     33  C   UNL     1       1.119   0.372   1.132  1.00  0.00    +0.016 C 
ENDROOT
BRANCH   1  34
ATOM     34  O   UNL     1       0.255   2.938   0.848  1.00  0.00    -0.462 OA
BRANCH  34  35
ATOM     35  C   UNL     1      -0.144   4.238   0.783  1.00  0.00    +0.302 C 
ATOM     36  O   UNL     1      -0.746   4.753  -0.149  1.00  0.00    -0.253 OA
ATOM     37  C   UNL     1       0.264   4.959   2.031  1.00  0.00    +0.139 C 
ENDBRANCH  34  35
ENDBRANCH   1  34
BRANCH   8  38
ATOM     38  O   UNL     1      -5.636  -0.234   2.590  1.00  0.00    -0.393 OA
ATOM     39  H   UNL     1      -5.929  -0.917   3.216  1.00  0.00    +0.210 HD
ENDBRANCH   8  38
TORSDOF 3
