REMARK SMILES CC(C)(O)c1cc2nc(-c3cccc4[n-]ncc34)nc(N3CCOCC3)c2s1
REMARK SMILES IDX 1 1 2 2 3 3 4 4 5 6 6 7 28 8 7 9 27 10 8 11 20 12 9 13 19 14
REMARK SMILES IDX 21 15 22 16 26 17 23 18 25 19 24 20 10 21 11 22 18 23 12 24
REMARK SMILES IDX 17 25 14 26 13 27 16 28 15 29
REMARK H PARENT 4 5
ROOT
ATOM      1  C   UNL     1      -4.262  -3.186  -0.595  1.00  0.00    +0.048 C 
ATOM      2  C   UNL     1      -3.621  -2.822   0.746  1.00  0.00    +0.093 C 
ATOM      3  C   UNL     1      -3.294  -4.089   1.539  1.00  0.00    +0.048 C 
ENDROOT
BRANCH   2   4
ATOM      4  O   UNL     1      -4.586  -2.102   1.522  1.00  0.00    -0.385 OA
ATOM      5  H   UNL     1      -4.614  -1.197   1.167  1.00  0.00    +0.211 HD
ENDBRANCH   2   4
BRANCH   2   6
ATOM      6  C   UNL     1      -2.407  -1.934   0.541  1.00  0.00    +0.039 A 
ATOM      7  C   UNL     1      -1.079  -2.299   0.426  1.00  0.00    +0.047 A 
ATOM      8  S   UNL     1      -2.571  -0.230   0.368  1.00  0.00    -0.132 S 
ATOM      9  C   UNL     1      -0.205  -1.193   0.215  1.00  0.00    +0.088 A 
ATOM     10  C   UNL     1      -0.881   0.015   0.144  1.00  0.00    +0.096 A 
ATOM     11  N   UNL     1       1.134  -1.296   0.091  1.00  0.00    -0.227 NA
ATOM     12  C   UNL     1      -0.145   1.192  -0.061  1.00  0.00    +0.150 A 
ATOM     13  C   UNL     1       1.791  -0.146  -0.059  1.00  0.00    +0.162 A 
ATOM     14  N   UNL     1       1.201   1.068  -0.138  1.00  0.00    -0.209 NA
BRANCH  12  15
ATOM     15  N   UNL     1      -0.714   2.461  -0.153  1.00  0.00    -0.351 N 
ATOM     16  C   UNL     1      -1.509   2.721  -1.361  1.00  0.00    +0.146 C 
ATOM     17  C   UNL     1       0.167   3.578   0.222  1.00  0.00    +0.146 C 
ATOM     18  C   UNL     1      -2.260   4.053  -1.205  1.00  0.00    +0.181 C 
ATOM     19  C   UNL     1      -0.654   4.873   0.313  1.00  0.00    +0.181 C 
ATOM     20  O   UNL     1      -1.367   5.139  -0.908  1.00  0.00    -0.378 OA
ENDBRANCH  12  15
BRANCH  13  21
ATOM     21  C   UNL     1       3.251  -0.165  -0.204  1.00  0.00    +0.027 A 
ATOM     22  C   UNL     1       3.989   0.924  -0.741  1.00  0.00    +0.012 A 
ATOM     23  C   UNL     1       4.041  -1.257   0.185  1.00  0.00    -0.012 A 
ATOM     24  C   UNL     1       5.386   0.900  -0.878  1.00  0.00    -0.000 A 
ATOM     25  C   UNL     1       3.782  -2.479   0.757  1.00  0.00    +0.093 A 
ATOM     26  C   UNL     1       5.436  -1.305   0.061  1.00  0.00    -0.113 A 
ATOM     27  C   UNL     1       6.127  -0.212  -0.482  1.00  0.00    -0.014 A 
ATOM     28  N   UNL     1       4.887  -3.216   0.959  1.00  0.00    -0.374 NA
ATOM     29  N   UNL     1       5.927  -2.479   0.518  1.00  0.00    -0.575 NA
ENDBRANCH  13  21
ENDBRANCH   2   6
TORSDOF 4
