REMARK SMILES Cc1nc(-c2cc(-c3ccc(Cl)cc3)n(-c3ccc(F)cc3)n2)sc1C(=O)[N-]NC(=O)NC(=O)c1ccc(C(F)(F)F)cc1
REMARK SMILES IDX 26 1 27 2 25 3 2 4 3 5 4 6 24 7 1 8 5 9 6 10 23 11 7 12
REMARK SMILES IDX 15 13 8 14 9 15 14 16 10 17 13 18 11 19 12 20 16 21 17 22
REMARK SMILES IDX 22 23 18 24 21 25 19 26 20 27 28 28 29 29 30 30 31 31 32 32
REMARK SMILES IDX 33 33 34 34 35 37 36 38 44 39 37 40 43 41 38 42 39 43 40 44
REMARK SMILES IDX 41 45 42 46
REMARK H PARENT 29 35 32 36
ROOT
ATOM      1  C   UNL     1      -2.416  -0.924  -2.133  1.00  0.00    +0.109 C 
ATOM      2  O   UNL     1      -2.983  -1.631  -1.299  1.00  0.00    -0.313 OA
ENDROOT
BRANCH   1   3
ATOM      3  C   UNL     1      -1.086  -0.349  -1.923  1.00  0.00    +0.077 A 
ATOM      4  C   UNL     1      -0.268   0.472  -2.698  1.00  0.00    +0.058 A 
ATOM      5  N   UNL     1       0.957   0.806  -2.122  1.00  0.00    -0.239 NA
ATOM      6  C   UNL     1       1.058   0.248  -0.935  1.00  0.00    +0.144 A 
ATOM      7  S   UNL     1      -0.274  -0.694  -0.437  1.00  0.00    -0.110 S 
ATOM      8  C   UNL     1      -0.547   1.028  -4.052  1.00  0.00    +0.068 C 
BRANCH   6   9
ATOM      9  C   UNL     1       2.349   0.456  -0.047  1.00  0.00    +0.122 A 
ATOM     10  C   UNL     1       3.452   1.237  -0.429  1.00  0.00    +0.062 A 
ATOM     11  N   UNL     1       2.520  -0.068   1.169  1.00  0.00    -0.165 NA
ATOM     12  C   UNL     1       4.339   1.189   0.631  1.00  0.00    +0.075 A 
ATOM     13  N   UNL     1       3.773   0.300   1.550  1.00  0.00    -0.232 N 
BRANCH  12  14
ATOM     14  C   UNL     1       5.561   1.972   0.781  1.00  0.00    +0.000 A 
ATOM     15  C   UNL     1       5.672   2.929   1.799  1.00  0.00    +0.012 A 
ATOM     16  C   UNL     1       6.617   1.807  -0.124  1.00  0.00    +0.012 A 
ATOM     17  C   UNL     1       6.838   3.690   1.928  1.00  0.00    +0.021 A 
ATOM     18  C   UNL     1       7.782   2.568   0.004  1.00  0.00    +0.021 A 
ATOM     19  C   UNL     1       7.888   3.503   1.032  1.00  0.00    +0.041 A 
ATOM     20 Cl   UNL     1       9.324   4.437   1.192  1.00  0.00    -0.084 Cl
ENDBRANCH  12  14
BRANCH  13  21
ATOM     21  C   UNL     1       4.306  -0.257   2.758  1.00  0.00    +0.065 A 
ATOM     22  C   UNL     1       5.672  -0.211   3.070  1.00  0.00    +0.031 A 
ATOM     23  C   UNL     1       3.429  -0.907   3.649  1.00  0.00    +0.031 A 
ATOM     24  C   UNL     1       6.143  -0.772   4.263  1.00  0.00    +0.041 A 
ATOM     25  C   UNL     1       3.903  -1.466   4.838  1.00  0.00    +0.041 A 
ATOM     26  C   UNL     1       5.256  -1.389   5.136  1.00  0.00    +0.123 A 
ATOM     27  F   UNL     1       5.716  -1.924   6.275  1.00  0.00    -0.207 F 
ENDBRANCH  13  21
ENDBRANCH   6   9
ENDBRANCH   1   3
BRANCH   1  28
ATOM     28  N   UNL     1      -2.920  -0.586  -3.328  1.00  0.00    -0.558 NA
BRANCH  28  29
ATOM     29  N   UNL     1      -4.302  -1.101  -3.520  1.00  0.00    -0.409 N 
ATOM     30  C   UNL     1      -5.071  -0.694  -4.566  1.00  0.00    +0.308 C 
ATOM     31  O   UNL     1      -4.698   0.006  -5.507  1.00  0.00    -0.250 OA
ATOM     32  N   UNL     1      -6.387  -1.118  -4.548  1.00  0.00    -0.275 N 
ATOM     33  C   UNL     1      -7.258  -1.640  -3.603  1.00  0.00    +0.259 C 
ATOM     34  O   UNL     1      -8.290  -2.212  -3.960  1.00  0.00    -0.269 OA
ATOM     35  H   UNL     1      -4.579  -1.790  -2.829  1.00  0.00    +0.145 HD
ATOM     36  H   UNL     1      -6.800  -1.026  -5.461  1.00  0.00    +0.175 HD
BRANCH  33  37
ATOM     37  C   UNL     1      -6.986  -1.503  -2.153  1.00  0.00    +0.040 A 
ATOM     38  C   UNL     1      -6.499  -0.312  -1.605  1.00  0.00    +0.014 A 
ATOM     39  C   UNL     1      -7.287  -2.581  -1.314  1.00  0.00    +0.014 A 
ATOM     40  C   UNL     1      -6.257  -0.221  -0.232  1.00  0.00    +0.014 A 
ATOM     41  C   UNL     1      -7.052  -2.487   0.060  1.00  0.00    +0.014 A 
ATOM     42  C   UNL     1      -6.519  -1.311   0.613  1.00  0.00    +0.056 A 
BRANCH  42  43
ATOM     43  C   UNL     1      -6.266  -1.217   2.096  1.00  0.00    +0.416 C 
ATOM     44  F   UNL     1      -5.416  -0.215   2.458  1.00  0.00    -0.166 F 
ATOM     45  F   UNL     1      -7.418  -0.983   2.792  1.00  0.00    -0.166 F 
ATOM     46  F   UNL     1      -5.749  -2.360   2.631  1.00  0.00    -0.166 F 
ENDBRANCH  42  43
ENDBRANCH  33  37
ENDBRANCH  28  29
ENDBRANCH   1  28
TORSDOF 8
