REMARK SMILES Nc1nonc1-c1nc2ccccc2n1C1CC1
REMARK SMILES IDX 2 1 3 2 4 3 5 4 6 5 1 6 7 9 8 10 15 11 9 12 14 13 10 14
REMARK SMILES IDX 13 15 11 16 12 17 16 18 17 19 18 20
REMARK H PARENT 1 7 1 8
ROOT
ATOM      1  C   UNL     1       3.536  -0.421  -0.497  1.00  0.00    +0.199 A 
ATOM      2  N   UNL     1       4.411  -1.392  -0.244  1.00  0.00    -0.032 NA
ATOM      3  O   UNL     1       3.681  -2.375   0.415  1.00  0.00    -0.242 OA
ATOM      4  N   UNL     1       2.348  -2.004   0.568  1.00  0.00    -0.044 NA
ATOM      5  C   UNL     1       2.265  -0.801  -0.003  1.00  0.00    +0.194 A 
ENDROOT
BRANCH   1   6
ATOM      6  N   UNL     1       3.820   0.734  -1.123  1.00  0.00    -0.379 N 
ATOM      7  H   UNL     1       3.100   1.440  -1.278  1.00  0.00    +0.158 HD
ATOM      8  H   UNL     1       4.752   0.948  -1.452  1.00  0.00    +0.158 HD
ENDBRANCH   1   6
BRANCH   5   9
ATOM      9  C   UNL     1       0.958   0.055  -0.086  1.00  0.00    +0.167 A 
ATOM     10  N   UNL     1       0.932   1.269  -0.616  1.00  0.00    -0.226 NA
ATOM     11  N   UNL     1      -0.291  -0.293   0.369  1.00  0.00    -0.319 N 
ATOM     12  C   UNL     1      -0.347   1.730  -0.419  1.00  0.00    +0.089 A 
ATOM     13  C   UNL     1      -1.135   0.779   0.223  1.00  0.00    +0.069 A 
ATOM     14  C   UNL     1      -0.903   2.973  -0.758  1.00  0.00    +0.030 A 
ATOM     15  C   UNL     1      -2.471   1.018   0.571  1.00  0.00    +0.028 A 
ATOM     16  C   UNL     1      -2.240   3.227  -0.428  1.00  0.00    +0.002 A 
ATOM     17  C   UNL     1      -3.007   2.264   0.229  1.00  0.00    +0.002 A 
BRANCH  11  18
ATOM     18  C   UNL     1      -0.676  -1.589   0.978  1.00  0.00    +0.089 C 
ATOM     19  C   UNL     1      -1.947  -2.325   0.610  1.00  0.00    +0.027 C 
ATOM     20  C   UNL     1      -0.623  -2.887   0.202  1.00  0.00    +0.027 C 
ENDBRANCH  11  18
ENDBRANCH   5   9
TORSDOF 3
