REMARK SMILES COc1ccc(Cc2c[n-]c(CCc3ccc(-c4ccccc4C(=O)[O-])cc3)n2)cc1
REMARK SMILES IDX 12 1 11 2 8 3 9 4 29 5 10 6 7 7 6 8 3 9 4 10 31 11 5 12
REMARK SMILES IDX 30 13 2 14 1 15 13 16 14 17 15 18 28 19 16 20 27 21 17 22
REMARK SMILES IDX 18 23 19 24 23 25 20 26 22 27 21 28 24 29 25 30 26 31
REMARK H PARENT
ROOT
ATOM      1  C   UNL     1       0.469  -1.640   0.795  1.00  0.00    +0.031 C 
ENDROOT
BRANCH   1   2
ATOM      2  C   UNL     1      -0.932  -2.060   1.028  1.00  0.00    -0.082 A 
ATOM      3  C   UNL     1      -2.990  -2.677   0.660  1.00  0.00    -0.065 A 
ATOM      4  C   UNL     1      -2.791  -2.564   2.025  1.00  0.00    -0.023 A 
ATOM      5  N   UNL     1      -1.815  -2.373   0.052  1.00  0.00    -0.443 NA
ATOM      6  N   UNL     1      -1.511  -2.195   2.241  1.00  0.00    -0.446 NA
BRANCH   3   7
ATOM      7  C   UNL     1      -4.208  -3.059  -0.103  1.00  0.00    +0.066 C 
BRANCH   7   8
ATOM      8  C   UNL     1      -5.346  -2.061  -0.014  1.00  0.00    -0.044 A 
ATOM      9  C   UNL     1      -7.468  -0.205   0.084  1.00  0.00    +0.118 A 
ATOM     10  C   UNL     1      -6.168   0.228  -0.171  1.00  0.00    +0.046 A 
ATOM     11  C   UNL     1      -7.706  -1.568   0.276  1.00  0.00    +0.046 A 
ATOM     12  C   UNL     1      -5.118  -0.694  -0.226  1.00  0.00    +0.008 A 
ATOM     13  C   UNL     1      -6.657  -2.491   0.227  1.00  0.00    +0.008 A 
BRANCH   9  14
ATOM     14  O   UNL     1      -8.581   0.590   0.163  1.00  0.00    -0.497 OA
ATOM     15  C   UNL     1      -8.357   1.992   0.075  1.00  0.00    +0.278 C 
ENDBRANCH   9  14
ENDBRANCH   7   8
ENDBRANCH   3   7
ENDBRANCH   1   2
BRANCH   1  16
ATOM     16  C   UNL     1       0.577  -0.129   0.582  1.00  0.00    +0.039 C 
BRANCH  16  17
ATOM     17  C   UNL     1       1.990   0.301   0.246  1.00  0.00    -0.048 A 
ATOM     18  C   UNL     1       2.476   0.167  -1.059  1.00  0.00    +0.004 A 
ATOM     19  C   UNL     1       2.840   0.820   1.229  1.00  0.00    +0.004 A 
ATOM     20  C   UNL     1       3.793   0.528  -1.366  1.00  0.00    +0.009 A 
ATOM     21  C   UNL     1       4.158   1.182   0.916  1.00  0.00    +0.009 A 
ATOM     22  C   UNL     1       4.664   1.028  -0.382  1.00  0.00    -0.018 A 
BRANCH  22  23
ATOM     23  C   UNL     1       6.084   1.286  -0.700  1.00  0.00    -0.009 A 
ATOM     24  C   UNL     1       6.870   0.198  -1.145  1.00  0.00    +0.009 A 
ATOM     25  C   UNL     1       6.710   2.545  -0.593  1.00  0.00    +0.005 A 
ATOM     26  C   UNL     1       8.218   0.346  -1.482  1.00  0.00    +0.001 A 
ATOM     27  C   UNL     1       8.071   2.682  -0.944  1.00  0.00    +0.010 A 
ATOM     28  C   UNL     1       8.820   1.594  -1.384  1.00  0.00    +0.001 A 
BRANCH  25  29
ATOM     29  C   UNL     1       6.001   3.785  -0.131  1.00  0.00    +0.072 C 
ATOM     30  O   UNL     1       5.662   4.612  -1.035  1.00  0.00    -0.545 OA
ATOM     31  O   UNL     1       5.895   3.948   1.124  1.00  0.00    -0.545 OA
ENDBRANCH  25  29
ENDBRANCH  22  23
ENDBRANCH  16  17
ENDBRANCH   1  16
TORSDOF 8
