REMARK SMILES COc1ccc2nc3cc(Cl)ccc3c(Nc3ccc(Nc4nc(NN)nc(Nc5ccccc5)n4)cc3)c2c1
REMARK SMILES IDX 17 1 18 2 19 3 20 4 37 5 38 6 16 7 15 9 3 10 4 11 40 12 5 13
REMARK SMILES IDX 39 14 6 15 7 16 14 17 8 18 13 19 9 20 12 21 10 22 11 23 2 24
REMARK SMILES IDX 1 25 21 26 22 28 23 29 36 30 24 31 28 32 27 33 25 34 26 36
REMARK SMILES IDX 29 39 30 41 31 42 35 43 32 44 34 45 33 46
REMARK H PARENT 16 8 21 27 25 35 26 37 26 38 29 40
ROOT
ATOM      1  C   UNL     1      -1.726  -0.782  -0.489  1.00  0.00    +0.039 A 
ATOM      2  C   UNL     1      -0.742  -1.664  -0.943  1.00  0.00    +0.028 A 
ATOM      3  C   UNL     1       0.622  -1.364  -0.808  1.00  0.00    +0.028 A 
ATOM      4  C   UNL     1       1.047  -0.171  -0.223  1.00  0.00    +0.041 A 
ATOM      5  C   UNL     1       0.055   0.717   0.219  1.00  0.00    +0.028 A 
ATOM      6  C   UNL     1      -1.307   0.420   0.084  1.00  0.00    +0.028 A 
ENDROOT
BRANCH   1   7
ATOM      7  N   UNL     1      -3.080  -1.102  -0.683  1.00  0.00    -0.354 N 
ATOM      8  H   UNL     1      -3.279  -2.087  -0.819  1.00  0.00    +0.167 HD
BRANCH   7   9
ATOM      9  C   UNL     1      -4.233  -0.303  -0.464  1.00  0.00    +0.058 A 
ATOM     10  C   UNL     1      -5.881  -2.082   2.433  1.00  0.00    +0.119 A 
ATOM     11  C   UNL     1      -6.991  -1.266   2.595  1.00  0.00    +0.048 A 
ATOM     12  C   UNL     1      -4.961  -1.774   1.429  1.00  0.00    +0.059 A 
ATOM     13  C   UNL     1      -7.163  -0.156   1.761  1.00  0.00    +0.033 A 
ATOM     14  C   UNL     1      -5.136  -0.659   0.571  1.00  0.00    +0.028 A 
ATOM     15  C   UNL     1      -6.258   0.164   0.758  1.00  0.00    +0.073 A 
ATOM     16  N   UNL     1      -6.498   1.252   0.014  1.00  0.00    -0.248 NA
ATOM     17  C   UNL     1      -4.492   0.841  -1.265  1.00  0.00    +0.024 A 
ATOM     18  C   UNL     1      -5.649   1.586  -0.967  1.00  0.00    +0.074 A 
ATOM     19  C   UNL     1      -3.681   1.257  -2.350  1.00  0.00    +0.014 A 
ATOM     20  C   UNL     1      -5.944   2.714  -1.718  1.00  0.00    +0.049 A 
ATOM     21  C   UNL     1      -3.993   2.392  -3.095  1.00  0.00    +0.021 A 
ATOM     22  C   UNL     1      -5.127   3.120  -2.770  1.00  0.00    +0.043 A 
ATOM     23 Cl   UNL     1      -5.531   4.525  -3.677  1.00  0.00    -0.084 Cl
BRANCH  10  24
ATOM     24  O   UNL     1      -5.577  -3.190   3.172  1.00  0.00    -0.497 OA
ATOM     25  C   UNL     1      -6.471  -3.525   4.227  1.00  0.00    +0.278 C 
ENDBRANCH  10  24
ENDBRANCH   7   9
ENDBRANCH   1   7
BRANCH   4  26
ATOM     26  N   UNL     1       2.388   0.190  -0.061  1.00  0.00    -0.324 N 
ATOM     27  H   UNL     1       2.568   1.075   0.391  1.00  0.00    +0.170 HD
BRANCH  26  28
ATOM     28  C   UNL     1       3.603  -0.411  -0.384  1.00  0.00    +0.233 A 
ATOM     29  N   UNL     1       3.663  -1.585  -0.990  1.00  0.00    -0.175 NA
ATOM     30  N   UNL     1       4.677   0.289  -0.037  1.00  0.00    -0.176 NA
ATOM     31  C   UNL     1       4.882  -2.049  -1.244  1.00  0.00    +0.243 A 
ATOM     32  C   UNL     1       5.856  -0.244  -0.326  1.00  0.00    +0.233 A 
ATOM     33  N   UNL     1       6.002  -1.415  -0.931  1.00  0.00    -0.175 NA
BRANCH  31  34
ATOM     34  N   UNL     1       5.017  -3.286  -1.884  1.00  0.00    -0.292 N 
ATOM     35  H   UNL     1       5.974  -3.584  -2.041  1.00  0.00    +0.184 HD
BRANCH  34  36
ATOM     36  N   UNL     1       3.917  -4.071  -2.262  1.00  0.00    -0.248 NA
ATOM     37  H   UNL     1       3.357  -4.278  -1.428  1.00  0.00    +0.143 HD
ATOM     38  H   UNL     1       3.290  -3.501  -2.840  1.00  0.00    +0.143 HD
ENDBRANCH  34  36
ENDBRANCH  31  34
BRANCH  32  39
ATOM     39  N   UNL     1       7.051   0.401  -0.009  1.00  0.00    -0.324 N 
ATOM     40  H   UNL     1       7.827  -0.169  -0.313  1.00  0.00    +0.170 HD
BRANCH  39  41
ATOM     41  C   UNL     1       7.374   1.612   0.613  1.00  0.00    +0.041 A 
ATOM     42  C   UNL     1       6.428   2.519   1.101  1.00  0.00    +0.026 A 
ATOM     43  C   UNL     1       8.731   1.947   0.762  1.00  0.00    +0.026 A 
ATOM     44  C   UNL     1       6.818   3.716   1.713  1.00  0.00    +0.002 A 
ATOM     45  C   UNL     1       9.126   3.141   1.373  1.00  0.00    +0.002 A 
ATOM     46  C   UNL     1       8.167   4.027   1.849  1.00  0.00    +0.000 A 
ENDBRANCH  39  41
ENDBRANCH  32  39
ENDBRANCH  26  28
ENDBRANCH   4  26
TORSDOF 9
