REMARK SMILES N#CCC(=O)Nc1cccc(-c2ccnc(Nc3ccc(N4CCOCC4)cc3)n2)c1
REMARK SMILES IDX 12 1 13 2 14 3 15 4 16 5 30 6 11 7 7 8 8 9 31 10 9 11 10 12
REMARK SMILES IDX 6 13 4 14 5 15 3 17 1 18 2 19 17 20 18 22 19 23 29 24 20 25
REMARK SMILES IDX 28 26 21 27 22 28 23 29 27 30 24 31 26 32 25 33
REMARK H PARENT 6 16 17 21
ROOT
ATOM      1  C   UNL     1       2.437  -1.705   0.259  1.00  0.00    +0.076 A 
ATOM      2  C   UNL     1       3.179  -2.865   0.175  1.00  0.00    +0.049 A 
ATOM      3  C   UNL     1       2.464  -4.034   0.117  1.00  0.00    +0.117 A 
ATOM      4  N   UNL     1       1.122  -4.087   0.138  1.00  0.00    -0.221 NA
ATOM      5  C   UNL     1       0.466  -2.919   0.220  1.00  0.00    +0.227 A 
ATOM      6  N   UNL     1       1.086  -1.733   0.287  1.00  0.00    -0.213 NA
ENDROOT
BRANCH   1   7
ATOM      7  C   UNL     1       3.048  -0.360   0.340  1.00  0.00    +0.002 A 
ATOM      8  C   UNL     1       4.857   1.211  -0.197  1.00  0.00    +0.041 A 
ATOM      9  C   UNL     1       4.191   2.213   0.516  1.00  0.00    +0.026 A 
ATOM     10  C   UNL     1       4.277  -0.059  -0.284  1.00  0.00    +0.036 A 
ATOM     11  C   UNL     1       2.971   1.947   1.135  1.00  0.00    +0.003 A 
ATOM     12  C   UNL     1       2.409   0.674   1.046  1.00  0.00    +0.010 A 
BRANCH   8  13
ATOM     13  N   UNL     1       6.086   1.562  -0.800  1.00  0.00    -0.325 N 
ATOM     14  C   UNL     1       6.957   0.727  -1.486  1.00  0.00    +0.238 C 
ATOM     15  O   UNL     1       6.826  -0.483  -1.649  1.00  0.00    -0.274 OA
ATOM     16  H   UNL     1       6.364   2.529  -0.677  1.00  0.00    +0.169 HD
BRANCH  14  17
ATOM     17  C   UNL     1       8.154   1.450  -2.061  1.00  0.00    +0.220 C 
ATOM     18  N   UNL     1      10.006   1.761  -0.232  1.00  0.00    -0.198 NA
ATOM     19  C   UNL     1       9.190   1.597  -1.040  1.00  0.00    +0.072 C 
ENDBRANCH  14  17
ENDBRANCH   8  13
ENDBRANCH   1   7
BRANCH   5  20
ATOM     20  N   UNL     1      -0.921  -3.030   0.250  1.00  0.00    -0.324 N 
ATOM     21  H   UNL     1      -1.169  -4.007   0.225  1.00  0.00    +0.170 HD
BRANCH  20  22
ATOM     22  C   UNL     1      -1.969  -2.106   0.277  1.00  0.00    +0.041 A 
ATOM     23  C   UNL     1      -3.278  -2.577   0.428  1.00  0.00    +0.028 A 
ATOM     24  C   UNL     1      -1.799  -0.727   0.190  1.00  0.00    +0.028 A 
ATOM     25  C   UNL     1      -4.374  -1.701   0.478  1.00  0.00    +0.028 A 
ATOM     26  C   UNL     1      -2.898   0.148   0.236  1.00  0.00    +0.028 A 
ATOM     27  C   UNL     1      -4.213  -0.315   0.372  1.00  0.00    +0.037 A 
BRANCH  27  28
ATOM     28  N   UNL     1      -5.281   0.574   0.421  1.00  0.00    -0.367 N 
ATOM     29  C   UNL     1      -6.582   0.151   0.967  1.00  0.00    +0.145 C 
ATOM     30  C   UNL     1      -5.377   1.604  -0.632  1.00  0.00    +0.145 C 
ATOM     31  C   UNL     1      -7.431   1.375   1.342  1.00  0.00    +0.181 C 
ATOM     32  C   UNL     1      -6.292   2.752  -0.181  1.00  0.00    +0.181 C 
ATOM     33  O   UNL     1      -7.582   2.276   0.235  1.00  0.00    -0.378 OA
ENDBRANCH  27  28
ENDBRANCH  20  22
ENDBRANCH   5  20
TORSDOF 6
