REMARK SMILES CCCS(=O)(=O)Nc1ccc(-c2ccc3c(cnn3-c3ccc(F)cc3)c2)c(C(F)(F)F)c1
REMARK SMILES IDX 7 1 4 3 5 4 6 5 3 6 2 7 1 8 8 9 9 10 33 11 10 12 28 13 11 14
REMARK SMILES IDX 29 15 30 16 31 17 32 18 12 19 13 20 27 21 14 22 16 23 15 24
REMARK SMILES IDX 17 25 19 26 18 27 20 28 21 29 26 30 22 31 25 32 23 33 24 34
REMARK H PARENT 7 2
ROOT
ATOM      1  N   UNL     1      -4.519  -1.665   1.346  1.00  0.00    -0.284 N 
ATOM      2  H   UNL     1      -4.734  -2.496   1.903  1.00  0.00    +0.180 HD
ENDROOT
BRANCH   1   3
ATOM      3  S   UNL     1      -5.354  -1.794  -0.129  1.00  0.00    +0.232 S 
ATOM      4  O   UNL     1      -6.174  -2.979   0.007  1.00  0.00    -0.207 OA
ATOM      5  O   UNL     1      -4.440  -1.623  -1.235  1.00  0.00    -0.207 OA
BRANCH   3   6
ATOM      6  C   UNL     1      -6.423  -0.362  -0.024  1.00  0.00    +0.159 C 
BRANCH   6   7
ATOM      7  C   UNL     1      -7.353  -0.279  -1.228  1.00  0.00    +0.015 C 
ATOM      8  C   UNL     1      -8.260   0.937  -1.145  1.00  0.00    +0.005 C 
ENDBRANCH   6   7
ENDBRANCH   3   6
ENDBRANCH   1   3
BRANCH   1   9
ATOM      9  C   UNL     1      -3.132  -1.341   1.270  1.00  0.00    +0.049 A 
ATOM     10  C   UNL     1      -2.183  -2.356   1.309  1.00  0.00    +0.027 A 
ATOM     11  C   UNL     1      -2.737  -0.020   1.077  1.00  0.00    +0.040 A 
ATOM     12  C   UNL     1      -0.829  -2.041   1.180  1.00  0.00    +0.011 A 
ATOM     13  C   UNL     1      -1.374   0.314   0.941  1.00  0.00    +0.065 A 
ATOM     14  C   UNL     1      -0.404  -0.712   0.997  1.00  0.00    -0.006 A 
BRANCH  13  15
ATOM     15  C   UNL     1      -0.986   1.760   0.736  1.00  0.00    +0.417 C 
ATOM     16  F   UNL     1      -0.303   1.976  -0.422  1.00  0.00    -0.166 F 
ATOM     17  F   UNL     1      -0.207   2.247   1.742  1.00  0.00    -0.166 F 
ATOM     18  F   UNL     1      -2.063   2.598   0.680  1.00  0.00    -0.166 F 
ENDBRANCH  13  15
BRANCH  14  19
ATOM     19  C   UNL     1       1.032  -0.443   0.859  1.00  0.00    -0.017 A 
ATOM     20  C   UNL     1       1.653  -0.525  -0.393  1.00  0.00    +0.011 A 
ATOM     21  C   UNL     1       1.811  -0.133   1.985  1.00  0.00    +0.020 A 
ATOM     22  C   UNL     1       3.022  -0.273  -0.558  1.00  0.00    +0.030 A 
ATOM     23  C   UNL     1       3.189   0.115   1.839  1.00  0.00    +0.021 A 
ATOM     24  C   UNL     1       3.777   0.087   0.573  1.00  0.00    +0.074 A 
ATOM     25  C   UNL     1       4.248   0.380   2.723  1.00  0.00    +0.144 A 
ATOM     26  N   UNL     1       5.117   0.427   0.775  1.00  0.00    -0.233 N 
ATOM     27  N   UNL     1       5.419   0.500   2.104  1.00  0.00    -0.175 NA
BRANCH  26  28
ATOM     28  C   UNL     1       6.146   0.706  -0.177  1.00  0.00    +0.065 A 
ATOM     29  C   UNL     1       5.857   1.057  -1.503  1.00  0.00    +0.031 A 
ATOM     30  C   UNL     1       7.490   0.670   0.242  1.00  0.00    +0.031 A 
ATOM     31  C   UNL     1       6.895   1.327  -2.401  1.00  0.00    +0.041 A 
ATOM     32  C   UNL     1       8.522   0.938  -0.659  1.00  0.00    +0.041 A 
ATOM     33  C   UNL     1       8.216   1.259  -1.974  1.00  0.00    +0.123 A 
ATOM     34  F   UNL     1       9.204   1.521  -2.839  1.00  0.00    -0.207 F 
ENDBRANCH  26  28
ENDBRANCH  14  19
ENDBRANCH   1   9
TORSDOF 7
