REMARK SMILES Cc1cc(N2CC[C@H](NC(=O)OC(C)(C)C)C2)cc2[n-]c(-c3c(NC[C@@H](O)c4cccc(Cl)c4)cc[n-]c3=O)nc12
REMARK SMILES IDX 1 1 2 2 3 3 4 4 18 5 19 6 20 7 21 8 40 9 41 10 5 11 6 12
REMARK SMILES IDX 17 13 7 14 8 15 9 16 10 17 11 18 12 20 13 21 14 22 15 23
REMARK SMILES IDX 16 24 22 25 23 26 38 27 35 28 37 29 39 30 36 31 24 32 25 34
REMARK SMILES IDX 26 35 27 36 28 38 29 39 34 40 30 41 32 42 31 43 33 44
REMARK H PARENT 9 19 24 33 27 37
ROOT
ATOM      1  C   UNL     1      -1.112  -0.615  -1.718  1.00  0.00    +0.044 C 
ATOM      2  C   UNL     1      -0.567  -0.541  -0.333  1.00  0.00    -0.046 A 
ATOM      3  C   UNL     1       0.809  -0.371  -0.067  1.00  0.00    +0.029 A 
ATOM      4  C   UNL     1       1.353  -0.272   1.235  1.00  0.00    +0.037 A 
ATOM      5  C   UNL     1       0.468  -0.348   2.320  1.00  0.00    +0.029 A 
ATOM      6  C   UNL     1      -0.902  -0.491   2.083  1.00  0.00    -0.036 A 
ATOM      7  N   UNL     1      -1.943  -0.577   2.940  1.00  0.00    -0.435 NA
ATOM      8  C   UNL     1      -3.100  -0.656   2.237  1.00  0.00    -0.047 A 
ATOM      9  N   UNL     1      -2.774  -0.683   0.892  1.00  0.00    -0.435 NA
ATOM     10  C   UNL     1      -1.422  -0.577   0.779  1.00  0.00    -0.035 A 
ENDROOT
BRANCH   4  11
ATOM     11  N   UNL     1       2.712  -0.098   1.429  1.00  0.00    -0.369 N 
ATOM     12  C   UNL     1       3.310   0.102   2.743  1.00  0.00    +0.119 C 
ATOM     13  C   UNL     1       3.715  -0.130   0.371  1.00  0.00    +0.141 C 
ATOM     14  C   UNL     1       4.714   0.606   2.428  1.00  0.00    +0.048 C 
ATOM     15  C   UNL     1       5.060  -0.104   1.125  1.00  0.00    +0.106 C 
BRANCH  15  16
ATOM     16  N   UNL     1       6.122   0.568   0.402  1.00  0.00    -0.317 N 
ATOM     17  C   UNL     1       6.839  -0.035  -0.582  1.00  0.00    +0.407 C 
ATOM     18  O   UNL     1       6.725  -1.200  -0.923  1.00  0.00    -0.225 OA
ATOM     19  H   UNL     1       6.278   1.558   0.528  1.00  0.00    +0.167 HD
BRANCH  17  20
ATOM     20  O   UNL     1       7.686   0.875  -1.117  1.00  0.00    -0.444 OA
BRANCH  20  21
ATOM     21  C   UNL     1       8.562   0.512  -2.213  1.00  0.00    +0.106 C 
ATOM     22  C   UNL     1       7.763   0.107  -3.457  1.00  0.00    +0.056 C 
ATOM     23  C   UNL     1       9.560  -0.574  -1.795  1.00  0.00    +0.056 C 
ATOM     24  C   UNL     1       9.342   1.797  -2.531  1.00  0.00    +0.056 C 
ENDBRANCH  20  21
ENDBRANCH  17  20
ENDBRANCH  15  16
ENDBRANCH   4  11
BRANCH   8  25
ATOM     25  C   UNL     1      -4.626  -0.861   2.789  1.00  0.00    +0.022 C 
ATOM     26  C   UNL     1      -5.551  -1.433   1.967  1.00  0.00    +0.041 C 
ATOM     27  C   UNL     1      -5.081  -0.337   4.169  1.00  0.00    +0.087 C 
ATOM     28  C   UNL     1      -6.902  -1.603   2.452  1.00  0.00    +0.002 C 
ATOM     29  N   UNL     1      -6.366  -0.538   4.555  1.00  0.00    -0.629 NA
ATOM     30  O   UNL     1      -4.302   0.286   4.892  1.00  0.00    -0.315 OA
ATOM     31  C   UNL     1      -7.190  -1.154   3.680  1.00  0.00    -0.134 C 
BRANCH  26  32
ATOM     32  N   UNL     1      -5.287  -1.859   0.658  1.00  0.00    -0.382 N 
ATOM     33  H   UNL     1      -4.256  -1.808   0.522  1.00  0.00    +0.160 HD
BRANCH  32  34
ATOM     34  C   UNL     1      -5.997  -1.333  -0.501  1.00  0.00    +0.149 C 
BRANCH  34  35
ATOM     35  C   UNL     1      -5.629   0.150  -0.755  1.00  0.00    +0.163 C 
BRANCH  35  36
ATOM     36  O   UNL     1      -4.284   0.257  -1.234  1.00  0.00    -0.387 OA
ATOM     37  H   UNL     1      -3.727  -0.018  -0.446  1.00  0.00    +0.211 HD
ENDBRANCH  35  36
BRANCH  35  38
ATOM     38  C   UNL     1      -6.571   0.767  -1.776  1.00  0.00    -0.016 A 
ATOM     39  C   UNL     1      -7.743   1.405  -1.337  1.00  0.00    +0.006 A 
ATOM     40  C   UNL     1      -6.320   0.686  -3.155  1.00  0.00    +0.027 A 
ATOM     41  C   UNL     1      -8.640   1.958  -2.252  1.00  0.00    +0.002 A 
ATOM     42  C   UNL     1      -7.219   1.240  -4.065  1.00  0.00    +0.041 A 
ATOM     43  C   UNL     1      -8.378   1.875  -3.619  1.00  0.00    +0.020 A 
ATOM     44 Cl   UNL     1      -6.906   1.138  -5.756  1.00  0.00    -0.084 Cl
ENDBRANCH  35  38
ENDBRANCH  34  35
ENDBRANCH  32  34
ENDBRANCH  26  32
ENDBRANCH   8  25
TORSDOF 10
