REMARK SMILES Cc1ccc(NC(=O)c2cc(N3CC[NH+](C)CC3)cc(C(F)(F)F)c2)cc1Nc1nc2ccccc2n1-c1cc(N)ncn1
REMARK SMILES IDX 1 1 2 2 3 3 4 4 5 5 26 6 27 7 28 8 29 10 30 11 37 12 31 13
REMARK SMILES IDX 36 14 32 15 35 16 33 17 34 18 38 19 39 20 44 21 40 22 43 23
REMARK SMILES IDX 42 24 41 25 6 28 7 29 8 30 9 32 10 33 25 34 11 35 20 36
REMARK SMILES IDX 19 37 12 38 13 39 18 40 14 41 17 42 15 43 16 44 21 46 22 47
REMARK SMILES IDX 23 48 24 49
REMARK H PARENT 28 9 41 26 41 27 6 31 15 45
ROOT
ATOM      1  C   UNL     1      -2.357  -2.017   5.093  1.00  0.00    +0.046 C 
ATOM      2  C   UNL     1      -1.583  -1.762   3.827  1.00  0.00    -0.027 A 
ATOM      3  C   UNL     1      -0.269  -2.253   3.741  1.00  0.00    +0.008 A 
ATOM      4  C   UNL     1       0.507  -2.046   2.600  1.00  0.00    +0.026 A 
ATOM      5  C   UNL     1      -0.016  -1.340   1.524  1.00  0.00    +0.043 A 
ATOM      6  C   UNL     1      -1.331  -0.855   1.606  1.00  0.00    +0.052 A 
ATOM      7  C   UNL     1      -2.141  -1.056   2.736  1.00  0.00    +0.046 A 
ENDROOT
BRANCH   7   8
ATOM      8  N   UNL     1      -3.458  -0.554   2.823  1.00  0.00    -0.325 N 
ATOM      9  H   UNL     1      -3.977  -0.888   3.635  1.00  0.00    +0.170 HD
BRANCH   8  10
ATOM     10  C   UNL     1      -4.147   0.245   1.965  1.00  0.00    +0.214 A 
ATOM     11  N   UNL     1      -3.725   0.802   0.850  1.00  0.00    -0.212 NA
ATOM     12  N   UNL     1      -5.470   0.634   2.247  1.00  0.00    -0.262 N 
ATOM     13  C   UNL     1      -4.796   1.453   0.317  1.00  0.00    +0.091 A 
ATOM     14  C   UNL     1      -5.924   1.330   1.125  1.00  0.00    +0.076 A 
ATOM     15  C   UNL     1      -4.872   2.155  -0.898  1.00  0.00    +0.031 A 
ATOM     16  C   UNL     1      -7.174   1.820   0.701  1.00  0.00    +0.029 A 
ATOM     17  C   UNL     1      -6.098   2.687  -1.301  1.00  0.00    +0.002 A 
ATOM     18  C   UNL     1      -7.234   2.508  -0.517  1.00  0.00    +0.002 A 
BRANCH  12  19
ATOM     19  C   UNL     1      -6.173   0.354   3.467  1.00  0.00    +0.145 A 
ATOM     20  C   UNL     1      -7.253   1.125   3.853  1.00  0.00    +0.094 A 
ATOM     21  N   UNL     1      -5.710  -0.658   4.244  1.00  0.00    -0.218 NA
ATOM     22  C   UNL     1      -7.871   0.788   5.038  1.00  0.00    +0.128 A 
ATOM     23  C   UNL     1      -6.407  -0.916   5.360  1.00  0.00    +0.226 A 
ATOM     24  N   UNL     1      -7.478  -0.244   5.789  1.00  0.00    -0.220 NA
BRANCH  22  25
ATOM     25  N   UNL     1      -8.979   1.481   5.477  1.00  0.00    -0.384 N 
ATOM     26  H   UNL     1      -9.024   2.480   5.343  1.00  0.00    +0.158 HD
ATOM     27  H   UNL     1      -9.361   1.118   6.343  1.00  0.00    +0.158 HD
ENDBRANCH  22  25
ENDBRANCH  12  19
ENDBRANCH   8  10
ENDBRANCH   7   8
BRANCH   5  28
ATOM     28  N   UNL     1       0.688  -1.080   0.328  1.00  0.00    -0.322 N 
ATOM     29  C   UNL     1       1.995  -1.412   0.034  1.00  0.00    +0.255 C 
ATOM     30  O   UNL     1       2.815  -1.922   0.789  1.00  0.00    -0.269 OA
ATOM     31  H   UNL     1       0.163  -0.554  -0.359  1.00  0.00    +0.170 HD
BRANCH  29  32
ATOM     32  C   UNL     1       2.451  -1.059  -1.343  1.00  0.00    +0.042 A 
ATOM     33  C   UNL     1       3.810  -0.748  -1.521  1.00  0.00    +0.039 A 
ATOM     34  C   UNL     1       1.594  -1.069  -2.445  1.00  0.00    +0.027 A 
ATOM     35  C   UNL     1       4.343  -0.413  -2.774  1.00  0.00    +0.038 A 
ATOM     36  C   UNL     1       2.092  -0.752  -3.716  1.00  0.00    +0.058 A 
ATOM     37  C   UNL     1       3.455  -0.419  -3.859  1.00  0.00    +0.039 A 
BRANCH  35  38
ATOM     38  N   UNL     1       5.695  -0.120  -2.915  1.00  0.00    -0.360 N 
ATOM     39  C   UNL     1       6.369  -0.323  -4.207  1.00  0.00    +0.178 C 
ATOM     40  C   UNL     1       6.303   0.851  -1.985  1.00  0.00    +0.178 C 
ATOM     41  C   UNL     1       7.875  -0.595  -4.011  1.00  0.00    +0.283 C 
ATOM     42  C   UNL     1       7.807   0.572  -1.795  1.00  0.00    +0.283 C 
ATOM     43  N   UNL     1       8.541   0.455  -3.128  1.00  0.00    -0.334 N 
ATOM     44  C   UNL     1       8.753   1.770  -3.814  1.00  0.00    +0.332 C 
ATOM     45  H   UNL     1       9.475   0.089  -2.905  1.00  0.00    +0.347 HD
ENDBRANCH  35  38
BRANCH  36  46
ATOM     46  C   UNL     1       1.182  -0.733  -4.921  1.00  0.00    +0.416 C 
ATOM     47  F   UNL     1       1.809  -1.153  -6.055  1.00  0.00    -0.166 F 
ATOM     48  F   UNL     1       0.720   0.518  -5.189  1.00  0.00    -0.166 F 
ATOM     49  F   UNL     1       0.086  -1.524  -4.780  1.00  0.00    -0.166 F 
ENDBRANCH  36  46
ENDBRANCH  29  32
ENDBRANCH   5  28
TORSDOF 8
