REMARK SMILES C[NH+]1CC=C(c2ccccc2C(F)(F)F)CC1
REMARK SMILES IDX 6 1 7 2 8 3 9 4 10 5 11 6 5 7 2 8 3 9 17 10 4 11 16 12 1 13
REMARK SMILES IDX 12 15 13 16 14 17 15 18
REMARK H PARENT 2 14
ROOT
ATOM      1  C   UNL     1       1.522   0.408  -0.227  1.00  0.00    -0.010 A 
ATOM      2  C   UNL     1       2.204   1.597   0.072  1.00  0.00    +0.009 A 
ATOM      3  C   UNL     1       3.584   1.690  -0.113  1.00  0.00    +0.001 A 
ATOM      4  C   UNL     1       4.295   0.599  -0.602  1.00  0.00    +0.001 A 
ATOM      5  C   UNL     1       3.629  -0.589  -0.905  1.00  0.00    +0.014 A 
ATOM      6  C   UNL     1       2.239  -0.704  -0.719  1.00  0.00    +0.063 A 
ENDROOT
BRANCH   1   7
ATOM      7  C   UNL     1       0.065   0.368  -0.020  1.00  0.00    -0.033 C 
ATOM      8  N   UNL     1      -2.654  -0.275   0.378  1.00  0.00    -0.334 N 
ATOM      9  C   UNL     1      -2.253   0.333  -0.942  1.00  0.00    +0.291 C 
ATOM     10  C   UNL     1      -1.942   0.404   1.527  1.00  0.00    +0.267 C 
ATOM     11  C   UNL     1      -0.772   0.459  -1.068  1.00  0.00    +0.038 C 
ATOM     12  C   UNL     1      -0.427   0.205   1.397  1.00  0.00    +0.097 C 
ATOM     13  C   UNL     1      -4.139  -0.316   0.557  1.00  0.00    +0.333 C 
ATOM     14  H   UNL     1      -2.320  -1.249   0.353  1.00  0.00    +0.348 HD
ENDBRANCH   1   7
BRANCH   6  15
ATOM     15  C   UNL     1       1.550  -2.002  -1.068  1.00  0.00    +0.416 C 
ATOM     16  F   UNL     1       0.794  -1.904  -2.199  1.00  0.00    -0.166 F 
ATOM     17  F   UNL     1       0.687  -2.427  -0.096  1.00  0.00    -0.166 F 
ATOM     18  F   UNL     1       2.402  -3.042  -1.278  1.00  0.00    -0.166 F 
ENDBRANCH   6  15
TORSDOF 2
