REMARK SMILES C[NH+]1CCN(c2cccc(-c3cnn4c(N)c(-c5ccc(NC(=O)c6ccc(C(F)(F)F)cc6)cc5)cnc34)c2)CC1
REMARK SMILES IDX 18 1 19 2 20 3 21 4 35 5 36 6 17 7 11 8 12 9 39 10 13 11
REMARK SMILES IDX 38 12 14 13 37 14 15 15 10 16 6 17 7 18 40 19 8 20 9 21 5 22
REMARK SMILES IDX 2 23 3 24 42 25 4 26 41 27 1 28 16 30 22 33 23 34 24 35
REMARK SMILES IDX 25 37 26 38 34 39 27 40 33 41 28 42 29 43 30 44 31 45 32 46
REMARK H PARENT 2 29 16 31 16 32 22 36
ROOT
ATOM      1  C   UNL     1       2.732   0.558   0.043  1.00  0.00    -0.013 A 
ATOM      2  C   UNL     1       3.533   0.987   1.105  1.00  0.00    +0.011 A 
ATOM      3  C   UNL     1       4.907   0.720   1.105  1.00  0.00    +0.027 A 
ATOM      4  C   UNL     1       5.502   0.021   0.047  1.00  0.00    +0.041 A 
ATOM      5  C   UNL     1       4.698  -0.410  -1.009  1.00  0.00    +0.027 A 
ATOM      6  C   UNL     1       3.324  -0.144  -1.012  1.00  0.00    +0.011 A 
ENDROOT
BRANCH   1   7
ATOM      7  C   UNL     1       1.292   0.837   0.039  1.00  0.00    +0.042 C 
ATOM      8  C   UNL     1      -2.789   1.580   0.084  1.00  0.00    +0.047 A 
ATOM      9  C   UNL     1      -2.734   2.513  -0.970  1.00  0.00    +0.146 A 
ATOM     10  C   UNL     1      -1.477   1.176   0.260  1.00  0.00    +0.165 A 
ATOM     11  N   UNL     1      -1.507   2.700  -1.449  1.00  0.00    -0.172 NA
ATOM     12  N   UNL     1      -0.897   0.284   1.122  1.00  0.00    -0.236 NA
ATOM     13  N   UNL     1      -0.720   1.878  -0.689  1.00  0.00    -0.198 N 
ATOM     14  C   UNL     1       0.388   0.139   1.007  1.00  0.00    +0.126 C 
ATOM     15  C   UNL     1       0.688   1.709  -0.799  1.00  0.00    +0.136 C 
BRANCH   8  16
ATOM     16  C   UNL     1      -3.934   1.094   0.835  1.00  0.00    -0.011 A 
ATOM     17  C   UNL     1      -6.289   0.375   0.854  1.00  0.00    +0.038 A 
ATOM     18  C   UNL     1      -6.180   0.200   2.241  1.00  0.00    +0.026 A 
ATOM     19  C   UNL     1      -5.148   0.838   0.174  1.00  0.00    +0.034 A 
ATOM     20  C   UNL     1      -4.981   0.451   2.915  1.00  0.00    +0.003 A 
ATOM     21  C   UNL     1      -3.862   0.892   2.214  1.00  0.00    +0.009 A 
BRANCH  17  22
ATOM     22  N   UNL     1      -7.470   0.115   0.154  1.00  0.00    -0.360 N 
ATOM     23  N   UNL     1      -9.901  -0.679  -1.236  1.00  0.00    -0.334 N 
ATOM     24  C   UNL     1      -8.554  -0.655  -1.951  1.00  0.00    +0.283 C 
ATOM     25  C   UNL     1      -9.927   0.360  -0.120  1.00  0.00    +0.283 C 
ATOM     26  C   UNL     1      -7.374  -0.831  -0.974  1.00  0.00    +0.178 C 
ATOM     27  C   UNL     1      -8.756   0.180   0.866  1.00  0.00    +0.178 C 
ATOM     28  C   UNL     1     -10.318  -2.049  -0.792  1.00  0.00    +0.332 C 
ATOM     29  H   UNL     1     -10.597  -0.373  -1.928  1.00  0.00    +0.347 HD
ENDBRANCH  17  22
ENDBRANCH   8  16
BRANCH  15  30
ATOM     30  N   UNL     1       1.329   2.464  -1.761  1.00  0.00    -0.383 N 
ATOM     31  H   UNL     1       0.761   3.102  -2.315  1.00  0.00    +0.158 HD
ATOM     32  H   UNL     1       2.334   2.429  -1.878  1.00  0.00    +0.158 HD
ENDBRANCH  15  30
ENDBRANCH   1   7
BRANCH   4  33
ATOM     33  N   UNL     1       6.892  -0.208   0.125  1.00  0.00    -0.322 N 
ATOM     34  C   UNL     1       7.694  -0.819  -0.823  1.00  0.00    +0.255 C 
ATOM     35  O   UNL     1       7.354  -1.200  -1.937  1.00  0.00    -0.269 OA
ATOM     36  H   UNL     1       7.352   0.156   0.949  1.00  0.00    +0.170 HD
BRANCH  34  37
ATOM     37  C   UNL     1       9.123  -0.976  -0.431  1.00  0.00    +0.040 A 
ATOM     38  C   UNL     1      10.105  -0.844  -1.419  1.00  0.00    +0.014 A 
ATOM     39  C   UNL     1       9.498  -1.285   0.883  1.00  0.00    +0.014 A 
ATOM     40  C   UNL     1      11.456  -0.987  -1.093  1.00  0.00    +0.014 A 
ATOM     41  C   UNL     1      10.851  -1.430   1.207  1.00  0.00    +0.014 A 
ATOM     42  C   UNL     1      11.844  -1.271   0.226  1.00  0.00    +0.056 A 
BRANCH  42  43
ATOM     43  C   UNL     1      13.303  -1.452   0.576  1.00  0.00    +0.416 C 
ATOM     44  F   UNL     1      13.593  -1.059   1.848  1.00  0.00    -0.166 F 
ATOM     45  F   UNL     1      13.698  -2.751   0.486  1.00  0.00    -0.166 F 
ATOM     46  F   UNL     1      14.140  -0.745  -0.232  1.00  0.00    -0.166 F 
ENDBRANCH  42  43
ENDBRANCH  34  37
ENDBRANCH   4  33
TORSDOF 7
