REMARK SMILES CCc1nc(C2CC2)c(C(N)=O)n1Cc1ccc2oc(-c3ccccc3NS(=O)(=O)C(F)(F)F)c(C(F)(F)F)c2c1
REMARK SMILES IDX 15 1 16 2 17 3 18 4 19 5 20 6 35 7 40 8 41 9 14 10 13 11
REMARK SMILES IDX 3 12 4 13 5 14 9 15 2 16 1 17 6 18 7 19 8 20 10 21 11 22
REMARK SMILES IDX 12 23 36 26 37 27 38 28 39 29 21 30 22 31 26 32 23 33 25 34
REMARK SMILES IDX 24 35 27 36 28 38 29 39 30 40 31 41 32 42 33 43 34 44
REMARK H PARENT 11 24 11 25 27 37
ROOT
ATOM      1  C   UNL     1      -0.462   1.201   0.798  1.00  0.00    -0.027 A 
ATOM      2  C   UNL     1      -0.464   1.621  -0.543  1.00  0.00    +0.009 A 
ATOM      3  C   UNL     1       0.360   1.022  -1.503  1.00  0.00    +0.048 A 
ATOM      4  C   UNL     1       1.183  -0.008  -1.060  1.00  0.00    +0.135 A 
ATOM      5  O   UNL     1       2.048  -0.707  -1.837  1.00  0.00    -0.455 OA
ATOM      6  C   UNL     1       2.661  -1.636  -1.044  1.00  0.00    +0.149 A 
ATOM      7  C   UNL     1       2.210  -1.513   0.264  1.00  0.00    +0.110 A 
ATOM      8  C   UNL     1       1.237  -0.462   0.248  1.00  0.00    +0.034 A 
ATOM      9  C   UNL     1       0.402   0.159   1.198  1.00  0.00    +0.018 A 
ENDROOT
BRANCH   1  10
ATOM     10  C   UNL     1      -1.352   1.866   1.828  1.00  0.00    +0.159 C 
BRANCH  10  11
ATOM     11  N   UNL     1      -2.766   1.780   1.481  1.00  0.00    -0.319 N 
ATOM     12  C   UNL     1      -3.559   2.819   1.036  1.00  0.00    +0.109 A 
ATOM     13  N   UNL     1      -4.778   2.395   0.783  1.00  0.00    -0.237 NA
ATOM     14  C   UNL     1      -4.786   1.069   1.107  1.00  0.00    +0.075 A 
ATOM     15  C   UNL     1      -3.548   0.632   1.540  1.00  0.00    +0.130 A 
BRANCH  12  16
ATOM     16  C   UNL     1      -3.113   4.236   0.864  1.00  0.00    +0.072 C 
ATOM     17  C   UNL     1      -3.244   5.023   2.158  1.00  0.00    +0.012 C 
ENDBRANCH  12  16
BRANCH  14  18
ATOM     18  C   UNL     1      -6.092   0.235   1.015  1.00  0.00    +0.041 C 
ATOM     19  C   UNL     1      -6.669  -0.393   2.257  1.00  0.00    +0.011 C 
ATOM     20  C   UNL     1      -7.341   0.799   1.645  1.00  0.00    +0.011 C 
ENDBRANCH  14  18
BRANCH  15  21
ATOM     21  C   UNL     1      -3.094  -0.658   1.994  1.00  0.00    +0.267 C 
ATOM     22  N   UNL     1      -3.698  -1.744   1.437  1.00  0.00    -0.364 N 
ATOM     23  O   UNL     1      -2.194  -0.829   2.811  1.00  0.00    -0.268 OA
ATOM     24  H   UNL     1      -4.401  -1.673   0.718  1.00  0.00    +0.160 HD
ATOM     25  H   UNL     1      -3.391  -2.658   1.738  1.00  0.00    +0.160 HD
ENDBRANCH  15  21
ENDBRANCH  10  11
ENDBRANCH   1  10
BRANCH   7  26
ATOM     26  C   UNL     1       2.654  -2.293   1.439  1.00  0.00    +0.420 C 
ATOM     27  F   UNL     1       3.997  -2.493   1.437  1.00  0.00    -0.166 F 
ATOM     28  F   UNL     1       2.359  -1.689   2.617  1.00  0.00    -0.166 F 
ATOM     29  F   UNL     1       2.075  -3.521   1.471  1.00  0.00    -0.166 F 
ENDBRANCH   7  26
BRANCH   6  30
ATOM     30  C   UNL     1       3.622  -2.498  -1.738  1.00  0.00    +0.042 A 
ATOM     31  C   UNL     1       3.696  -3.860  -1.404  1.00  0.00    +0.014 A 
ATOM     32  C   UNL     1       4.486  -2.008  -2.744  1.00  0.00    +0.060 A 
ATOM     33  C   UNL     1       4.610  -4.708  -2.035  1.00  0.00    +0.001 A 
ATOM     34  C   UNL     1       5.395  -2.864  -3.374  1.00  0.00    +0.027 A 
ATOM     35  C   UNL     1       5.459  -4.210  -3.018  1.00  0.00    +0.002 A 
BRANCH  32  36
ATOM     36  N   UNL     1       4.470  -0.625  -3.128  1.00  0.00    -0.275 N 
ATOM     37  H   UNL     1       3.583  -0.144  -2.940  1.00  0.00    +0.180 HD
BRANCH  36  38
ATOM     38  S   UNL     1       5.803   0.346  -2.703  1.00  0.00    +0.333 S 
ATOM     39  O   UNL     1       6.984  -0.229  -3.323  1.00  0.00    -0.197 OA
ATOM     40  O   UNL     1       5.393   1.691  -3.074  1.00  0.00    -0.197 OA
BRANCH  38  41
ATOM     41  C   UNL     1       5.919   0.225  -0.845  1.00  0.00    +0.516 C 
ATOM     42  F   UNL     1       6.232  -1.033  -0.424  1.00  0.00    -0.155 F 
ATOM     43  F   UNL     1       4.738   0.551  -0.245  1.00  0.00    -0.155 F 
ATOM     44  F   UNL     1       6.865   1.061  -0.331  1.00  0.00    -0.155 F 
ENDBRANCH  38  41
ENDBRANCH  36  38
ENDBRANCH  32  36
ENDBRANCH   6  30
TORSDOF 10
