REMARK SMILES O=C(Nc1cccc(C(F)(F)F)c1)c1cc(N2CCC([NH+]3CCCCC3=O)CC2)cc(C(F)(F)F)c1
REMARK SMILES IDX 14 1 15 2 16 3 30 4 31 5 36 6 2 7 1 8 3 9 4 11 5 12 13 13
REMARK SMILES IDX 6 14 8 15 7 16 9 17 10 18 11 19 12 20 17 21 18 22 29 23
REMARK SMILES IDX 19 24 28 25 20 26 21 27 22 28 26 29 23 30 25 31 27 32 24 33
REMARK SMILES IDX 32 35 33 36 34 37 35 38
REMARK H PARENT 3 10 21 34
ROOT
ATOM      1  C   UNL     1      -1.922  -1.413  -0.725  1.00  0.00    +0.042 A 
ATOM      2  C   UNL     1      -1.004  -0.366  -0.544  1.00  0.00    +0.039 A 
ATOM      3  C   UNL     1       0.275  -0.412  -1.114  1.00  0.00    +0.038 A 
ATOM      4  C   UNL     1       0.593  -1.553  -1.874  1.00  0.00    +0.039 A 
ATOM      5  C   UNL     1      -0.312  -2.618  -2.059  1.00  0.00    +0.058 A 
ATOM      6  C   UNL     1      -1.573  -2.544  -1.463  1.00  0.00    +0.027 A 
ENDROOT
BRANCH   1   7
ATOM      7  C   UNL     1      -3.257  -1.368  -0.080  1.00  0.00    +0.255 C 
ATOM      8  O   UNL     1      -3.622  -2.362   0.532  1.00  0.00    -0.269 OA
ATOM      9  N   UNL     1      -3.942  -0.184  -0.268  1.00  0.00    -0.322 N 
ATOM     10  H   UNL     1      -3.528   0.494  -0.895  1.00  0.00    +0.170 HD
BRANCH   9  11
ATOM     11  C   UNL     1      -5.196   0.169   0.273  1.00  0.00    +0.042 A 
ATOM     12  C   UNL     1      -5.924  -0.638   1.147  1.00  0.00    +0.026 A 
ATOM     13  C   UNL     1      -5.724   1.414  -0.095  1.00  0.00    +0.039 A 
ATOM     14  C   UNL     1      -7.161  -0.214   1.642  1.00  0.00    +0.003 A 
ATOM     15  C   UNL     1      -6.962   1.858   0.405  1.00  0.00    +0.058 A 
ATOM     16  C   UNL     1      -7.680   1.025   1.273  1.00  0.00    +0.013 A 
BRANCH  15  17
ATOM     17  C   UNL     1      -7.516   3.194  -0.021  1.00  0.00    +0.416 C 
ATOM     18  F   UNL     1      -6.542   4.140  -0.158  1.00  0.00    -0.166 F 
ATOM     19  F   UNL     1      -8.416   3.714   0.857  1.00  0.00    -0.166 F 
ATOM     20  F   UNL     1      -8.147   3.134  -1.224  1.00  0.00    -0.166 F 
ENDBRANCH  15  17
ENDBRANCH   9  11
ENDBRANCH   1   7
BRANCH   3  21
ATOM     21  N   UNL     1       1.230   0.585  -0.904  1.00  0.00    -0.371 N 
ATOM     22  C   UNL     1       1.943   1.117  -2.081  1.00  0.00    +0.122 C 
ATOM     23  C   UNL     1       1.088   1.510   0.232  1.00  0.00    +0.122 C 
ATOM     24  C   UNL     1       3.349   1.572  -1.669  1.00  0.00    +0.087 C 
ATOM     25  C   UNL     1       2.447   2.135   0.561  1.00  0.00    +0.087 C 
ATOM     26  C   UNL     1       3.600   1.419  -0.158  1.00  0.00    +0.194 C 
BRANCH  26  27
ATOM     27  N   UNL     1       3.668  -0.048   0.235  1.00  0.00    -0.269 N 
ATOM     28  C   UNL     1       3.797  -0.401   1.683  1.00  0.00    +0.270 C 
ATOM     29  C   UNL     1       4.647  -0.818  -0.533  1.00  0.00    +0.312 C 
ATOM     30  C   UNL     1       5.230  -0.175   2.160  1.00  0.00    +0.063 C 
ATOM     31  C   UNL     1       6.097  -0.768  -0.147  1.00  0.00    +0.145 C 
ATOM     32  O   UNL     1       4.158  -1.430  -1.462  1.00  0.00    -0.231 OA
ATOM     33  C   UNL     1       6.226  -1.010   1.352  1.00  0.00    +0.020 C 
ATOM     34  H   UNL     1       2.773  -0.444  -0.115  1.00  0.00    +0.356 HD
ENDBRANCH  26  27
ENDBRANCH   3  21
BRANCH   5  35
ATOM     35  C   UNL     1       0.110  -3.836  -2.846  1.00  0.00    +0.416 C 
ATOM     36  F   UNL     1       0.776  -3.507  -3.987  1.00  0.00    -0.166 F 
ATOM     37  F   UNL     1      -0.928  -4.625  -3.228  1.00  0.00    -0.166 F 
ATOM     38  F   UNL     1       0.956  -4.629  -2.135  1.00  0.00    -0.166 F 
ENDBRANCH   5  35
TORSDOF 6
