REMARK SMILES O=C(Nc1cccc(-c2cn3ccnc3c(NCc3ccncc3)n2)c1)Nc1ccccc1Cl
REMARK SMILES IDX 4 1 5 2 6 3 7 4 8 5 26 6 3 7 1 8 2 9 27 10 28 13 29 14 33 15
REMARK SMILES IDX 30 16 32 17 31 18 34 19 9 20 10 21 25 22 11 23 16 24 12 25
REMARK SMILES IDX 15 26 17 27 13 28 14 29 18 31 19 32 20 33 24 34 21 35 23 36
REMARK SMILES IDX 22 37
REMARK H PARENT 3 11 27 12 17 30
ROOT
ATOM      1  C   UNL     1       2.186   1.531  -1.412  1.00  0.00    +0.043 A 
ATOM      2  C   UNL     1       1.700   2.316  -2.464  1.00  0.00    +0.026 A 
ATOM      3  C   UNL     1       0.336   2.589  -2.575  1.00  0.00    +0.003 A 
ATOM      4  C   UNL     1      -0.554   2.080  -1.630  1.00  0.00    +0.010 A 
ATOM      5  C   UNL     1      -0.095   1.294  -0.564  1.00  0.00    +0.004 A 
ATOM      6  C   UNL     1       1.282   1.015  -0.479  1.00  0.00    +0.036 A 
ENDROOT
BRANCH   1   7
ATOM      7  N   UNL     1       3.578   1.298  -1.375  1.00  0.00    -0.308 N 
ATOM      8  O   UNL     1       3.844   0.266   0.682  1.00  0.00    -0.248 OA
ATOM      9  C   UNL     1       4.305   0.657  -0.382  1.00  0.00    +0.323 C 
ATOM     10  N   UNL     1       5.631   0.531  -0.763  1.00  0.00    -0.306 N 
ATOM     11  H   UNL     1       4.109   1.695  -2.135  1.00  0.00    +0.171 HD
ATOM     12  H   UNL     1       5.872   0.818  -1.701  1.00  0.00    +0.171 HD
BRANCH  10  13
ATOM     13  C   UNL     1       6.713  -0.007  -0.023  1.00  0.00    +0.061 A 
ATOM     14  C   UNL     1       6.595  -0.470   1.290  1.00  0.00    +0.028 A 
ATOM     15  C   UNL     1       7.976  -0.074  -0.643  1.00  0.00    +0.064 A 
ATOM     16  C   UNL     1       7.706  -0.989   1.965  1.00  0.00    +0.002 A 
ATOM     17  C   UNL     1       9.085  -0.591   0.031  1.00  0.00    +0.023 A 
ATOM     18  C   UNL     1       8.949  -1.050   1.338  1.00  0.00    +0.002 A 
ATOM     19 Cl   UNL     1       8.200   0.487  -2.268  1.00  0.00    -0.082 Cl
ENDBRANCH  10  13
ENDBRANCH   1   7
BRANCH   5  20
ATOM     20  C   UNL     1      -1.067   0.754   0.420  1.00  0.00    +0.089 C 
ATOM     21  C   UNL     1      -0.738   0.693   1.728  1.00  0.00    +0.122 C 
ATOM     22  N   UNL     1      -2.311   0.356  -0.065  1.00  0.00    -0.226 NA
ATOM     23  N   UNL     1      -1.669   0.197   2.614  1.00  0.00    -0.302 N 
ATOM     24  C   UNL     1      -3.212  -0.123   0.763  1.00  0.00    +0.170 C 
ATOM     25  C   UNL     1      -1.645   0.006   3.968  1.00  0.00    +0.113 A 
ATOM     26  C   UNL     1      -2.896  -0.216   2.177  1.00  0.00    +0.180 A 
ATOM     27  N   UNL     1      -4.438  -0.527   0.298  1.00  0.00    -0.363 N 
ATOM     28  C   UNL     1      -2.881  -0.523   4.278  1.00  0.00    +0.132 A 
ATOM     29  N   UNL     1      -3.662  -0.659   3.154  1.00  0.00    -0.234 NA
ATOM     30  H   UNL     1      -5.090  -0.893   0.986  1.00  0.00    +0.162 HD
BRANCH  27  31
ATOM     31  C   UNL     1      -4.828  -0.495  -1.084  1.00  0.00    +0.150 C 
BRANCH  31  32
ATOM     32  C   UNL     1      -6.237  -1.012  -1.222  1.00  0.00    -0.026 A 
ATOM     33  C   UNL     1      -6.482  -2.372  -1.432  1.00  0.00    +0.025 A 
ATOM     34  C   UNL     1      -7.330  -0.150  -1.095  1.00  0.00    +0.025 A 
ATOM     35  C   UNL     1      -7.796  -2.802  -1.527  1.00  0.00    +0.111 A 
ATOM     36  C   UNL     1      -8.607  -0.676  -1.205  1.00  0.00    +0.111 A 
ATOM     37  N   UNL     1      -8.864  -1.984  -1.423  1.00  0.00    -0.265 NA
ENDBRANCH  31  32
ENDBRANCH  27  31
ENDBRANCH   5  20
TORSDOF 5
