REMARK SMILES Cn1c(COc2ccc(Cc3sc(=O)[n-]c3[O-])cc2)nc2ccc(Cl)nc21
REMARK SMILES IDX 6 1 7 2 8 3 9 4 18 5 19 6 5 7 4 8 3 9 2 10 27 11 20 12 26 13
REMARK SMILES IDX 21 14 24 15 22 16 23 17 1 18 25 19 10 20 11 21 12 22 16 23
REMARK SMILES IDX 13 24 15 25 14 26 17 27
REMARK H PARENT
ROOT
ATOM      1  C   UNL     1       0.642  -0.692  -1.134  1.00  0.00    +0.120 A 
ATOM      2  C   UNL     1       1.384  -1.645  -0.437  1.00  0.00    +0.047 A 
ATOM      3  C   UNL     1       2.773  -1.527  -0.366  1.00  0.00    +0.008 A 
ATOM      4  C   UNL     1       3.438  -0.469  -0.999  1.00  0.00    -0.043 A 
ATOM      5  C   UNL     1       2.691   0.462  -1.728  1.00  0.00    +0.008 A 
ATOM      6  C   UNL     1       1.301   0.345  -1.800  1.00  0.00    +0.047 A 
ENDROOT
BRANCH   1   7
ATOM      7  O   UNL     1      -0.724  -0.670  -1.229  1.00  0.00    -0.486 OA
BRANCH   7   8
ATOM      8  C   UNL     1      -1.418  -1.343  -0.178  1.00  0.00    +0.304 C 
BRANCH   8   9
ATOM      9  C   UNL     1      -2.788  -0.741  -0.118  1.00  0.00    +0.148 A 
ATOM     10  N   UNL     1      -3.013   0.594   0.165  1.00  0.00    -0.313 N 
ATOM     11  C   UNL     1      -4.364   0.807   0.134  1.00  0.00    +0.161 A 
ATOM     12  N   UNL     1      -3.933  -1.383  -0.300  1.00  0.00    -0.228 NA
ATOM     13  N   UNL     1      -5.024   1.967   0.339  1.00  0.00    -0.216 NA
ATOM     14  C   UNL     1      -4.911  -0.437  -0.155  1.00  0.00    +0.108 A 
ATOM     15  C   UNL     1      -6.364   1.813   0.234  1.00  0.00    +0.131 A 
ATOM     16  C   UNL     1      -6.304  -0.537  -0.250  1.00  0.00    +0.035 A 
ATOM     17  C   UNL     1      -7.042   0.631  -0.047  1.00  0.00    +0.043 A 
ATOM     18  C   UNL     1      -2.012   1.598   0.433  1.00  0.00    +0.153 C 
ATOM     19 Cl   UNL     1      -7.252   3.265   0.486  1.00  0.00    -0.062 Cl
ENDBRANCH   8   9
ENDBRANCH   7   8
ENDBRANCH   1   7
BRANCH   4  20
ATOM     20  C   UNL     1       4.945  -0.348  -0.865  1.00  0.00    +0.079 C 
BRANCH  20  21
ATOM     21  C   UNL     1       5.408  -0.070   0.528  1.00  0.00    -0.019 C 
ATOM     22  S   UNL     1       5.246   1.484   1.281  1.00  0.00    -0.124 SA
ATOM     23  C   UNL     1       6.031  -0.900   1.389  1.00  0.00    -0.215 C 
ATOM     24  C   UNL     1       6.041   0.863   2.757  1.00  0.00    +0.132 C 
ATOM     25  N   UNL     1       6.389  -0.429   2.619  1.00  0.00    -0.627 NA
ATOM     26  O   UNL     1       6.205   1.601   3.727  1.00  0.00    -0.304 OA
ATOM     27  O   UNL     1       6.363  -2.110   1.268  1.00  0.00    -0.888 OA
ENDBRANCH  20  21
ENDBRANCH   4  20
TORSDOF 5
