REMARK SMILES O=c1[n-]c2cc(Cl)ccc2c(=O)c(-c2ccccn2)c1[O-]
REMARK SMILES IDX 1 1 2 2 3 3 4 4 5 5 10 6 6 7 9 8 8 9 7 10 11 11 12 12 20 14
REMARK SMILES IDX 13 15 21 16 14 18 15 19 19 20 16 21 18 22 17 23
REMARK H PARENT
REMARK Flexibility Score:   37.900
ROOT
ATOM      1  O   UNL     1      -0.982  -3.238   1.241  1.00  0.00    -0.316 OA
ATOM      2  C   UNL     1      -0.801  -2.060   1.557  1.00  0.00    +0.071 C 
ENDROOT
BRANCH   2   3
ATOM      3  N   UNL     1      -1.745  -1.210   1.989  1.00  0.00    -0.623 NA
BRANCH   3   4
ATOM      4  C   UNL     1      -2.314  -0.431   1.035  1.00  0.00    -0.121 A 
ATOM      5  C   UNL     1      -3.576   0.126   1.336  1.00  0.00    +0.005 A 
ATOM      6  C   UNL     1      -1.759  -0.133  -0.232  1.00  0.00    +0.008 A 
ATOM      7  C   UNL     1      -4.274   0.912   0.419  1.00  0.00    +0.039 A 
ATOM      8  C   UNL     1      -2.483   0.655  -1.153  1.00  0.00    +0.012 A 
ATOM      9  C   UNL     1      -3.735   1.176  -0.832  1.00  0.00    +0.021 A 
ATOM     10 Cl   UNL     1      -5.819   1.560   0.832  1.00  0.00    -0.084 Cl
BRANCH   6  11
ATOM     11  C   UNL     1      -0.404  -0.576  -0.692  1.00  0.00    +0.193 CG0
ATOM     12  O   UNL     1      -0.201  -0.707  -1.907  1.00  0.00    -0.289 OA
ATOM     13  G   UNL     1       0.715  -0.710   0.305  1.00  0.00    +0.000 G0
ENDBRANCH   6  11
ENDBRANCH   3   4
ENDBRANCH   2   3
BRANCH   2  14
ATOM     14  C   UNL     1       0.590  -1.420   1.462  1.00  0.00    -0.070 C 
ATOM     15  C   UNL     1       0.715  -0.710   0.305  1.00  0.00    +0.042 CG0
ATOM     16  O   UNL     1       1.411  -1.682   2.404  1.00  0.00    -0.871 OA
ATOM     17  G   UNL     1      -0.404  -0.576  -0.692  1.00  0.00    +0.000 G0
BRANCH  15  18
ATOM     18  C   UNL     1       1.997  -0.068  -0.084  1.00  0.00    +0.074 A 
ATOM     19  C   UNL     1       3.203  -0.771  -0.038  1.00  0.00    +0.029 A 
ATOM     20  N   UNL     1       1.941   1.215  -0.553  1.00  0.00    -0.256 NA
ATOM     21  C   UNL     1       4.380  -0.150  -0.448  1.00  0.00    +0.004 A 
ATOM     22  C   UNL     1       3.097   1.788  -0.940  1.00  0.00    +0.111 A 
ATOM     23  C   UNL     1       4.330   1.157  -0.908  1.00  0.00    +0.020 A 
ENDBRANCH  15  18
ENDBRANCH   2  14
TORSDOF 1
