REMARK SMILES Cc1ccc(C(=O)Nc2cccc(C(F)(F)F)c2)cc1Nc1nc2ccccc2n1-c1cc(NCCC[NH+]2CC[NH+](C)CC2)ncn1
REMARK SMILES IDX 22 1 23 2 24 3 25 4 26 5 27 6 28 7 29 8 30 9 21 10 20 12
REMARK SMILES IDX 2 13 3 14 4 15 19 16 5 17 1 18 6 19 7 20 8 21 9 23 10 24
REMARK SMILES IDX 18 25 11 26 13 27 12 28 14 29 15 30 16 31 17 32 31 33 32 34
REMARK SMILES IDX 47 35 33 36 46 37 45 38 34 39 35 41 36 42 37 43 38 44 39 45
REMARK SMILES IDX 44 46 40 47 43 48 41 49 42 51
REMARK H PARENT 21 11 8 22 34 40 38 50 41 52
ROOT
ATOM      1  C   UNL     1       0.567  -3.451  -0.685  1.00  0.00    +0.214 A 
ATOM      2  N   UNL     1       1.609  -2.867  -1.245  1.00  0.00    -0.212 NA
ATOM      3  C   UNL     1       1.419  -2.983  -2.594  1.00  0.00    +0.091 A 
ATOM      4  C   UNL     1       2.290  -2.657  -3.643  1.00  0.00    +0.031 A 
ATOM      5  C   UNL     1       1.861  -2.855  -4.961  1.00  0.00    +0.002 A 
ATOM      6  C   UNL     1       0.590  -3.363  -5.229  1.00  0.00    +0.002 A 
ATOM      7  C   UNL     1      -0.297  -3.682  -4.195  1.00  0.00    +0.029 A 
ATOM      8  C   UNL     1       0.147  -3.470  -2.881  1.00  0.00    +0.076 A 
ATOM      9  N   UNL     1      -0.444  -3.636  -1.636  1.00  0.00    -0.262 N 
ENDROOT
BRANCH   1  10
ATOM     10  N   UNL     1       0.349  -3.708   0.627  1.00  0.00    -0.325 N 
ATOM     11  H   UNL     1      -0.391  -4.374   0.860  1.00  0.00    +0.170 HD
BRANCH  10  12
ATOM     12  C   UNL     1       0.778  -2.956   1.740  1.00  0.00    +0.045 A 
ATOM     13  C   UNL     1       0.765  -3.520   3.033  1.00  0.00    -0.027 A 
ATOM     14  C   UNL     1       1.089  -2.723   4.147  1.00  0.00    +0.006 A 
ATOM     15  C   UNL     1       1.420  -1.377   3.995  1.00  0.00    +0.014 A 
ATOM     16  C   UNL     1       1.203  -1.629   1.600  1.00  0.00    +0.040 A 
ATOM     17  C   UNL     1       1.473  -0.829   2.714  1.00  0.00    +0.042 A 
ATOM     18  C   UNL     1       0.378  -4.958   3.263  1.00  0.00    +0.046 C 
BRANCH  17  19
ATOM     19  C   UNL     1       1.667   0.628   2.494  1.00  0.00    +0.255 C 
ATOM     20  O   UNL     1       1.039   1.168   1.578  1.00  0.00    -0.269 OA
ATOM     21  N   UNL     1       2.574   1.239   3.332  1.00  0.00    -0.322 N 
ATOM     22  H   UNL     1       3.191   0.638   3.873  1.00  0.00    +0.170 HD
BRANCH  21  23
ATOM     23  C   UNL     1       2.780   2.625   3.488  1.00  0.00    +0.042 A 
ATOM     24  C   UNL     1       3.915   3.045   4.185  1.00  0.00    +0.026 A 
ATOM     25  C   UNL     1       1.881   3.585   3.018  1.00  0.00    +0.039 A 
ATOM     26  C   UNL     1       4.164   4.407   4.378  1.00  0.00    +0.003 A 
ATOM     27  C   UNL     1       2.124   4.959   3.198  1.00  0.00    +0.058 A 
ATOM     28  C   UNL     1       3.275   5.361   3.885  1.00  0.00    +0.013 A 
BRANCH  27  29
ATOM     29  C   UNL     1       1.127   5.968   2.686  1.00  0.00    +0.416 C 
ATOM     30  F   UNL     1       1.673   7.169   2.369  1.00  0.00    -0.166 F 
ATOM     31  F   UNL     1       0.518   5.529   1.536  1.00  0.00    -0.166 F 
ATOM     32  F   UNL     1       0.117   6.206   3.560  1.00  0.00    -0.166 F 
ENDBRANCH  27  29
ENDBRANCH  21  23
ENDBRANCH  17  19
ENDBRANCH  10  12
ENDBRANCH   1  10
BRANCH   9  33
ATOM     33  C   UNL     1      -1.837  -3.534  -1.317  1.00  0.00    +0.145 A 
ATOM     34  C   UNL     1      -2.577  -2.619  -2.051  1.00  0.00    +0.094 A 
ATOM     35  N   UNL     1      -2.255  -4.017  -0.129  1.00  0.00    -0.218 NA
ATOM     36  C   UNL     1      -3.670  -2.072  -1.419  1.00  0.00    +0.131 A 
ATOM     37  C   UNL     1      -3.418  -3.536   0.320  1.00  0.00    +0.226 A 
ATOM     38  N   UNL     1      -4.102  -2.531  -0.242  1.00  0.00    -0.219 NA
BRANCH  36  39
ATOM     39  N   UNL     1      -4.258  -0.890  -1.809  1.00  0.00    -0.370 N 
ATOM     40  H   UNL     1      -5.086  -0.729  -1.226  1.00  0.00    +0.162 HD
BRANCH  39  41
ATOM     41  C   UNL     1      -4.322  -0.362  -3.159  1.00  0.00    +0.120 C 
BRANCH  41  42
ATOM     42  C   UNL     1      -3.836   1.093  -3.164  1.00  0.00    +0.082 C 
BRANCH  42  43
ATOM     43  C   UNL     1      -2.324   1.241  -2.978  1.00  0.00    +0.264 C 
BRANCH  43  44
ATOM     44  N   UNL     1      -1.892   0.921  -1.557  1.00  0.00    -0.326 N 
ATOM     45  C   UNL     1      -1.970   2.082  -0.567  1.00  0.00    +0.324 C 
ATOM     46  C   UNL     1      -0.542   0.214  -1.456  1.00  0.00    +0.324 C 
ATOM     47  C   UNL     1      -0.779   3.068  -0.714  1.00  0.00    +0.324 C 
ATOM     48  C   UNL     1       0.644   1.182  -1.652  1.00  0.00    +0.324 C 
ATOM     49  N   UNL     1       0.560   2.353  -0.695  1.00  0.00    -0.328 N 
ATOM     50  H   UNL     1      -2.598   0.229  -1.225  1.00  0.00    +0.348 HD
ATOM     51  C   UNL     1       1.721   3.300  -0.866  1.00  0.00    +0.333 C 
ATOM     52  H   UNL     1       0.698   1.955   0.267  1.00  0.00    +0.348 HD
ENDBRANCH  43  44
ENDBRANCH  42  43
ENDBRANCH  41  42
ENDBRANCH  39  41
ENDBRANCH  36  39
ENDBRANCH   9  33
TORSDOF 11
