REMARK SMILES O=C([O-])CC(O)(CC(=O)[O-])C(=O)[O-]
REMARK SMILES IDX 5 1 4 2 2 3 1 4 3 5 6 6 7 8 8 9 9 10 10 11 11 12 12 13 13 14
REMARK H PARENT 6 7
ROOT
ATOM      1  C   UNL     1      -0.173   0.180   0.324  1.00  0.00    +0.114 C 
ENDROOT
BRANCH   1   2
ATOM      2  C   UNL     1      -1.413   0.126  -0.598  1.00  0.00    +0.094 C 
BRANCH   2   3
ATOM      3  C   UNL     1      -1.952  -1.156  -1.248  1.00  0.00    +0.045 C 
ATOM      4  O   UNL     1      -3.189  -1.397  -1.051  1.00  0.00    -0.550 OA
ATOM      5  O   UNL     1      -1.179  -1.795  -2.022  1.00  0.00    -0.550 OA
ENDBRANCH   2   3
ENDBRANCH   1   2
BRANCH   1   6
ATOM      6  O   UNL     1      -0.475  -0.561   1.540  1.00  0.00    -0.383 OA
ATOM      7  H   UNL     1       0.308  -0.335   2.098  1.00  0.00    +0.211 HD
ENDBRANCH   1   6
BRANCH   1   8
ATOM      8  C   UNL     1       1.110  -0.392  -0.294  1.00  0.00    +0.094 C 
BRANCH   8   9
ATOM      9  C   UNL     1       2.385  -0.321   0.561  1.00  0.00    +0.045 C 
ATOM     10  O   UNL     1       2.237  -0.310   1.822  1.00  0.00    -0.550 OA
ATOM     11  O   UNL     1       3.484  -0.380  -0.080  1.00  0.00    -0.550 OA
ENDBRANCH   8   9
ENDBRANCH   1   8
BRANCH   1  12
ATOM     12  C   UNL     1       0.007   1.738   0.654  1.00  0.00    +0.074 C 
ATOM     13  O   UNL     1      -0.393   2.133   1.799  1.00  0.00    -0.547 OA
ATOM     14  O   UNL     1       0.473   2.472  -0.277  1.00  0.00    -0.547 OA
ENDBRANCH   1  12
TORSDOF 6
