REMARK SMILES CCCN(CC1CC1)c1cc(C(=O)Nc2ccc3[n-]ncc3c2)ncn1
REMARK SMILES IDX 4 1 3 2 2 3 1 4 5 5 6 6 7 7 8 8 9 9 10 10 26 11 11 12 25 13
REMARK SMILES IDX 24 14 12 15 13 16 14 17 15 19 16 20 23 21 17 22 22 23 18 24
REMARK SMILES IDX 21 25 19 26 20 27
REMARK H PARENT 14 18
ROOT
ATOM      1  N   UNL     1      -2.883  -0.143   0.162  1.00  0.00    -0.356 N 
ENDROOT
BRANCH   1   2
ATOM      2  C   UNL     1      -3.246  -0.673  -1.152  1.00  0.00    +0.118 C 
BRANCH   2   3
ATOM      3  C   UNL     1      -3.057  -2.191  -1.242  1.00  0.00    +0.018 C 
ATOM      4  C   UNL     1      -3.993  -2.969  -0.329  1.00  0.00    +0.006 C 
ENDBRANCH   2   3
ENDBRANCH   1   2
BRANCH   1   5
ATOM      5  C   UNL     1      -3.967   0.237   1.068  1.00  0.00    +0.121 C 
BRANCH   5   6
ATOM      6  C   UNL     1      -4.269   1.703   0.936  1.00  0.00    +0.008 C 
ATOM      7  C   UNL     1      -5.627   2.240   1.315  1.00  0.00    +0.006 C 
ATOM      8  C   UNL     1      -5.205   2.221  -0.128  1.00  0.00    +0.006 C 
ENDBRANCH   5   6
ENDBRANCH   1   5
BRANCH   1   9
ATOM      9  C   UNL     1      -1.575   0.067   0.568  1.00  0.00    +0.132 A 
ATOM     10  C   UNL     1      -0.495  -0.152  -0.261  1.00  0.00    +0.081 A 
ATOM     11  N   UNL     1      -1.363   0.507   1.827  1.00  0.00    -0.219 NA
ATOM     12  C   UNL     1       0.763   0.091   0.256  1.00  0.00    +0.134 A 
ATOM     13  C   UNL     1      -0.102   0.714   2.236  1.00  0.00    +0.225 A 
ATOM     14  N   UNL     1       1.000   0.529   1.512  1.00  0.00    -0.231 NA
BRANCH  12  15
ATOM     15  C   UNL     1       1.971  -0.134  -0.606  1.00  0.00    +0.274 C 
ATOM     16  O   UNL     1       1.824  -0.533  -1.755  1.00  0.00    -0.267 OA
ATOM     17  N   UNL     1       3.155   0.152   0.045  1.00  0.00    -0.321 N 
ATOM     18  H   UNL     1       3.041   0.471   1.003  1.00  0.00    +0.170 HD
BRANCH  17  19
ATOM     19  C   UNL     1       4.474   0.059  -0.441  1.00  0.00    +0.042 A 
ATOM     20  C   UNL     1       4.790  -0.366  -1.746  1.00  0.00    +0.025 A 
ATOM     21  C   UNL     1       5.493   0.419   0.454  1.00  0.00    +0.034 A 
ATOM     22  C   UNL     1       6.117  -0.447  -2.201  1.00  0.00    -0.012 A 
ATOM     23  C   UNL     1       6.792   0.327  -0.027  1.00  0.00    -0.021 A 
ATOM     24  C   UNL     1       7.139  -0.089  -1.309  1.00  0.00    -0.114 A 
ATOM     25  C   UNL     1       8.012   0.584   0.535  1.00  0.00    +0.093 A 
ATOM     26  N   UNL     1       8.481  -0.070  -1.470  1.00  0.00    -0.575 NA
ATOM     27  N   UNL     1       9.031   0.354  -0.308  1.00  0.00    -0.374 NA
ENDBRANCH  17  19
ENDBRANCH  12  15
ENDBRANCH   1   9
TORSDOF 7
