REMARK SMILES N#Cc1ccccc1/C=C/c1c(N2CC[NH+](CC3CCCCC3)CC2)c(=O)c1=O
REMARK SMILES IDX 11 1 12 2 26 3 27 4 28 5 29 6 10 7 9 8 8 9 1 10 2 11 3 12
REMARK SMILES IDX 4 13 5 14 7 15 6 16 13 17 14 18 25 19 15 20 24 21 16 22
REMARK SMILES IDX 17 24 18 25 19 26 23 27 20 28 22 29 21 30
REMARK H PARENT 16 23
ROOT
ATOM      1  C   UNL     1      -1.868  -3.592  -1.177  1.00  0.00    +0.054 C 
ATOM      2  C   UNL     1      -0.863  -2.808  -1.662  1.00  0.00    +0.101 C 
ATOM      3  C   UNL     1      -0.580  -3.838  -2.722  1.00  0.00    +0.250 C 
ATOM      4  O   UNL     1       0.171  -3.970  -3.655  1.00  0.00    -0.283 OA
ATOM      5  C   UNL     1      -1.628  -4.694  -2.100  1.00  0.00    +0.237 C 
ATOM      6  O   UNL     1      -2.040  -5.800  -2.332  1.00  0.00    -0.285 OA
ENDROOT
BRANCH   1   7
ATOM      7  C   UNL     1      -2.967  -3.607  -0.086  1.00  0.00    +0.015 C 
ATOM      8  C   UNL     1      -3.244  -2.549   0.686  1.00  0.00    +0.010 C 
BRANCH   8   9
ATOM      9  C   UNL     1      -4.172  -2.509   1.832  1.00  0.00    -0.008 A 
ATOM     10  N   UNL     1      -1.710  -0.266   2.919  1.00  0.00    -0.192 NA
ATOM     11  C   UNL     1      -2.691  -0.886   2.985  1.00  0.00    +0.100 C 
ATOM     12  C   UNL     1      -3.891  -1.681   2.945  1.00  0.00    +0.059 A 
ATOM     13  C   UNL     1      -4.778  -1.626   4.028  1.00  0.00    +0.020 A 
ATOM     14  C   UNL     1      -5.950  -2.381   4.011  1.00  0.00    +0.001 A 
ATOM     15  C   UNL     1      -5.362  -3.250   1.829  1.00  0.00    +0.009 A 
ATOM     16  C   UNL     1      -6.242  -3.188   2.913  1.00  0.00    +0.001 A 
ENDBRANCH   8   9
ENDBRANCH   1   7
BRANCH   2  17
ATOM     17  N   UNL     1      -0.230  -1.660  -1.439  1.00  0.00    -0.356 N 
ATOM     18  C   UNL     1      -0.256  -0.994  -0.121  1.00  0.00    +0.178 C 
ATOM     19  C   UNL     1       0.742  -1.124  -2.421  1.00  0.00    +0.178 C 
ATOM     20  C   UNL     1       1.053  -0.242   0.176  1.00  0.00    +0.283 C 
ATOM     21  C   UNL     1       0.924   0.402  -2.289  1.00  0.00    +0.283 C 
ATOM     22  N   UNL     1       1.307   0.844  -0.872  1.00  0.00    -0.332 N 
ATOM     23  H   UNL     1       0.650   1.594  -0.627  1.00  0.00    +0.348 HD
BRANCH  22  24
ATOM     24  C   UNL     1       2.710   1.398  -0.754  1.00  0.00    +0.265 C 
BRANCH  24  25
ATOM     25  C   UNL     1       2.829   2.804  -1.377  1.00  0.00    +0.044 C 
ATOM     26  C   UNL     1       4.309   3.227  -1.456  1.00  0.00    +0.009 C 
ATOM     27  C   UNL     1       2.027   3.887  -0.631  1.00  0.00    +0.009 C 
ATOM     28  C   UNL     1       4.907   3.566  -0.092  1.00  0.00    +0.001 C 
ATOM     29  C   UNL     1       2.612   4.231   0.738  1.00  0.00    +0.001 C 
ATOM     30  C   UNL     1       4.083   4.621   0.638  1.00  0.00    +0.000 C 
ENDBRANCH  24  25
ENDBRANCH  22  24
ENDBRANCH   2  17
TORSDOF 5
