REMARK SMILES CC(=O)O[C@@H]1C[C@@]23C[C@@]24CC[C@H](O)C(C)(C)[C@@H]4CC[C@H]3[C@]2(C)C[C@@H]3O[C@]4(C[C@@H](C)[C@@H]3[C@@]12C)C[C@H](O)[C@@]1(C)O[C@@H]41
REMARK SMILES IDX 5 1 6 2 7 3 8 4 9 5 10 6 11 7 12 8 14 9 15 10 16 11 17 12
REMARK SMILES IDX 18 13 19 14 20 15 21 16 22 17 23 18 24 19 25 20 26 21 27 22
REMARK SMILES IDX 28 23 29 24 30 25 31 26 32 27 33 28 34 29 36 30 37 31 38 32
REMARK SMILES IDX 39 33 4 34 2 35 3 36 1 37 13 38 35 40
REMARK H PARENT 13 39 35 41
ROOT
ATOM      1  C   UNL     1       0.051  -1.596   1.431  1.00  0.00    +0.184 C 
ATOM      2  C   UNL     1      -1.479  -1.397   1.255  1.00  0.00    +0.053 C 
ATOM      3  C   UNL     1      -1.972  -0.363   0.230  1.00  0.00    -0.016 C 
ATOM      4  C   UNL     1      -2.644  -0.900  -1.025  1.00  0.00    +0.016 C 
ATOM      5  C   UNL     1      -3.510  -0.247   0.020  1.00  0.00    -0.020 C 
ATOM      6  C   UNL     1      -4.465  -1.163   0.771  1.00  0.00    +0.010 C 
ATOM      7  C   UNL     1      -5.783  -1.298   0.019  1.00  0.00    +0.033 C 
ATOM      8  C   UNL     1      -6.427   0.063  -0.248  1.00  0.00    +0.120 C 
ATOM      9  C   UNL     1      -5.484   1.056  -0.999  1.00  0.00    -0.006 C 
ATOM     10  C   UNL     1      -6.167   2.446  -1.032  1.00  0.00    +0.014 C 
ATOM     11  C   UNL     1      -5.284   0.623  -2.466  1.00  0.00    +0.014 C 
ATOM     12  C   UNL     1      -4.131   1.143  -0.203  1.00  0.00    +0.004 C 
ATOM     13  C   UNL     1      -3.124   2.171  -0.738  1.00  0.00    +0.005 C 
ATOM     14  C   UNL     1      -1.880   2.190   0.148  1.00  0.00    +0.005 C 
ATOM     15  C   UNL     1      -1.088   0.885  -0.004  1.00  0.00    +0.003 C 
ATOM     16  C   UNL     1       0.224   0.848   0.824  1.00  0.00    -0.017 C 
ATOM     17  C   UNL     1      -0.050   1.275   2.300  1.00  0.00    +0.012 C 
ATOM     18  C   UNL     1       1.323   1.788   0.288  1.00  0.00    +0.040 C 
ATOM     19  C   UNL     1       2.653   1.162   0.747  1.00  0.00    +0.123 C 
ATOM     20  O   UNL     1       3.542   1.154  -0.364  1.00  0.00    -0.368 OA
ATOM     21  C   UNL     1       4.835   0.600  -0.088  1.00  0.00    +0.100 C 
ATOM     22  C   UNL     1       4.819  -0.460   1.018  1.00  0.00    +0.042 C 
ATOM     23  C   UNL     1       3.501  -1.253   1.001  1.00  0.00    -0.005 C 
ATOM     24  C   UNL     1       3.572  -2.355   2.058  1.00  0.00    +0.008 C 
ATOM     25  C   UNL     1       2.331  -0.274   1.254  1.00  0.00    +0.031 C 
ATOM     26  C   UNL     1       0.906  -0.563   0.661  1.00  0.00    +0.016 C 
ATOM     27  C   UNL     1       1.047  -1.014  -0.829  1.00  0.00    +0.016 C 
ATOM     28  C   UNL     1       5.817   1.762   0.213  1.00  0.00    +0.073 C 
ATOM     29  C   UNL     1       6.188   2.296  -1.185  1.00  0.00    +0.152 C 
ATOM     30  C   UNL     1       6.157   1.085  -2.073  1.00  0.00    +0.121 C 
ATOM     31  C   UNL     1       6.237   1.212  -3.548  1.00  0.00    +0.048 C 
ATOM     32  O   UNL     1       6.763  -0.104  -1.535  1.00  0.00    -0.360 OA
ATOM     33  C   UNL     1       5.341   0.036  -1.399  1.00  0.00    +0.185 C 
ENDROOT
BRANCH   1  34
ATOM     34  O   UNL     1       0.407  -2.934   1.007  1.00  0.00    -0.462 OA
BRANCH  34  35
ATOM     35  C   UNL     1       0.082  -3.945   1.859  1.00  0.00    +0.302 C 
ATOM     36  O   UNL     1      -0.460  -3.812   2.946  1.00  0.00    -0.253 OA
ATOM     37  C   UNL     1       0.488  -5.260   1.268  1.00  0.00    +0.139 C 
ENDBRANCH  34  35
ENDBRANCH   1  34
BRANCH   8  38
ATOM     38  O   UNL     1      -7.634  -0.176  -0.972  1.00  0.00    -0.393 OA
ATOM     39  H   UNL     1      -8.173   0.631  -0.931  1.00  0.00    +0.210 HD
ENDBRANCH   8  38
BRANCH  29  40
ATOM     40  O   UNL     1       5.205   3.236  -1.612  1.00  0.00    -0.390 OA
ATOM     41  H   UNL     1       4.335   2.806  -1.490  1.00  0.00    +0.211 HD
ENDBRANCH  29  40
TORSDOF 4
