REMARK SMILES N#CCNC(=O)c1cccc(-c2ccnc(Nc3ccc(N4CCOCC4)cc3)n2)c1
REMARK SMILES IDX 12 1 13 2 14 3 15 4 16 5 30 6 11 7 7 8 8 9 31 10 9 11 10 12
REMARK SMILES IDX 5 13 4 14 6 15 3 17 1 18 2 19 17 20 18 22 19 23 29 24 20 25
REMARK SMILES IDX 28 26 21 27 22 28 23 29 27 30 24 31 26 32 25 33
REMARK H PARENT 4 16 17 21
ROOT
ATOM      1  C   UNL     1       2.300  -1.865   0.624  1.00  0.00    +0.076 A 
ATOM      2  C   UNL     1       2.970  -3.031   0.934  1.00  0.00    +0.049 A 
ATOM      3  C   UNL     1       2.185  -4.117   1.227  1.00  0.00    +0.117 A 
ATOM      4  N   UNL     1       0.842  -4.086   1.224  1.00  0.00    -0.221 NA
ATOM      5  C   UNL     1       0.258  -2.920   0.911  1.00  0.00    +0.227 A 
ATOM      6  N   UNL     1       0.950  -1.810   0.618  1.00  0.00    -0.213 NA
ENDROOT
BRANCH   1   7
ATOM      7  C   UNL     1       2.989  -0.598   0.295  1.00  0.00    +0.001 A 
ATOM      8  C   UNL     1       4.898   0.644  -0.620  1.00  0.00    +0.040 A 
ATOM      9  C   UNL     1       4.268   1.857  -0.329  1.00  0.00    +0.014 A 
ATOM     10  C   UNL     1       4.253  -0.569  -0.323  1.00  0.00    +0.024 A 
ATOM     11  C   UNL     1       3.013   1.853   0.276  1.00  0.00    +0.002 A 
ATOM     12  C   UNL     1       2.388   0.642   0.585  1.00  0.00    +0.010 A 
BRANCH   8  13
ATOM     13  C   UNL     1       6.238   0.580  -1.269  1.00  0.00    +0.252 C 
ATOM     14  N   UNL     1       7.081   1.649  -1.066  1.00  0.00    -0.339 N 
ATOM     15  O   UNL     1       6.563  -0.407  -1.920  1.00  0.00    -0.269 OA
ATOM     16  H   UNL     1       6.830   2.383  -0.419  1.00  0.00    +0.164 HD
BRANCH  14  17
ATOM     17  C   UNL     1       8.426   1.650  -1.614  1.00  0.00    +0.237 C 
ATOM     18  N   UNL     1      10.201   0.841   0.155  1.00  0.00    -0.196 NA
ATOM     19  C   UNL     1       9.418   1.178  -0.633  1.00  0.00    +0.084 C 
ENDBRANCH  14  17
ENDBRANCH   8  13
ENDBRANCH   1   7
BRANCH   5  20
ATOM     20  N   UNL     1      -1.133  -2.938   0.933  1.00  0.00    -0.324 N 
ATOM     21  H   UNL     1      -1.442  -3.856   1.216  1.00  0.00    +0.170 HD
BRANCH  20  22
ATOM     22  C   UNL     1      -2.121  -2.000   0.625  1.00  0.00    +0.041 A 
ATOM     23  C   UNL     1      -3.457  -2.312   0.902  1.00  0.00    +0.028 A 
ATOM     24  C   UNL     1      -1.865  -0.743   0.081  1.00  0.00    +0.028 A 
ATOM     25  C   UNL     1      -4.495  -1.406   0.632  1.00  0.00    +0.028 A 
ATOM     26  C   UNL     1      -2.906   0.159  -0.192  1.00  0.00    +0.028 A 
ATOM     27  C   UNL     1      -4.248  -0.150   0.067  1.00  0.00    +0.037 A 
BRANCH  27  28
ATOM     28  N   UNL     1      -5.257   0.765  -0.207  1.00  0.00    -0.367 N 
ATOM     29  C   UNL     1      -6.580   0.631   0.425  1.00  0.00    +0.145 C 
ATOM     30  C   UNL     1      -5.292   1.378  -1.550  1.00  0.00    +0.145 C 
ATOM     31  C   UNL     1      -7.350   1.958   0.347  1.00  0.00    +0.181 C 
ATOM     32  C   UNL     1      -6.133   2.664  -1.534  1.00  0.00    +0.181 C 
ATOM     33  O   UNL     1      -7.448   2.435  -1.004  1.00  0.00    -0.378 OA
ENDBRANCH  27  28
ENDBRANCH  20  22
ENDBRANCH   5  20
TORSDOF 6
