REMARK SMILES COc1ccc(Cn2ncc3[n-]c(-c4ccc(NC(=O)Nc5nc6ccc(C)cc6s5)cc4C)nc32)cc1
REMARK SMILES IDX 8 1 9 2 10 3 11 4 12 5 13 6 35 7 36 8 7 9 6 10 3 11 4 12
REMARK SMILES IDX 38 13 5 14 37 15 2 16 1 17 14 18 15 19 33 20 16 21 32 22
REMARK SMILES IDX 17 23 34 24 18 25 19 26 20 27 21 28 22 31 23 32 31 33 24 34
REMARK SMILES IDX 30 35 25 36 29 37 26 38 27 39 28 40
REMARK H PARENT 18 29 21 30
ROOT
ATOM      1  N   UNL     1      -5.944  -2.515  -0.800  1.00  0.00    -0.265 N 
ATOM      2  N   UNL     1      -6.651  -2.949  -1.908  1.00  0.00    -0.181 NA
ATOM      3  C   UNL     1      -5.706  -2.928  -2.883  1.00  0.00    +0.139 A 
ATOM      4  C   UNL     1      -4.476  -2.526  -2.386  1.00  0.00    +0.001 A 
ATOM      5  N   UNL     1      -3.104  -2.290  -2.745  1.00  0.00    -0.433 NA
ATOM      6  C   UNL     1      -2.509  -1.888  -1.539  1.00  0.00    -0.049 A 
ATOM      7  N   UNL     1      -3.407  -1.868  -0.470  1.00  0.00    -0.419 NA
ATOM      8  C   UNL     1      -4.647  -2.282  -1.086  1.00  0.00    +0.053 A 
ENDROOT
BRANCH   1   9
ATOM      9  C   UNL     1      -6.558  -2.427   0.506  1.00  0.00    +0.180 C 
BRANCH   9  10
ATOM     10  C   UNL     1      -7.158  -1.064   0.762  1.00  0.00    -0.026 A 
ATOM     11  C   UNL     1      -8.252   1.489   1.240  1.00  0.00    +0.118 A 
ATOM     12  C   UNL     1      -6.870   1.304   1.254  1.00  0.00    +0.047 A 
ATOM     13  C   UNL     1      -9.083   0.395   0.985  1.00  0.00    +0.047 A 
ATOM     14  C   UNL     1      -6.327   0.037   1.017  1.00  0.00    +0.009 A 
ATOM     15  C   UNL     1      -8.544  -0.871   0.743  1.00  0.00    +0.009 A 
BRANCH  11  16
ATOM     16  O   UNL     1      -8.908   2.671   1.457  1.00  0.00    -0.497 OA
ATOM     17  C   UNL     1      -8.092   3.827   1.602  1.00  0.00    +0.278 C 
ENDBRANCH  11  16
ENDBRANCH   9  10
ENDBRANCH   1   9
BRANCH   6  18
ATOM     18  C   UNL     1      -0.955  -1.498  -1.443  1.00  0.00    -0.023 A 
ATOM     19  C   UNL     1      -0.215  -1.581  -2.630  1.00  0.00    +0.010 A 
ATOM     20  C   UNL     1      -0.317  -1.087  -0.260  1.00  0.00    -0.042 A 
ATOM     21  C   UNL     1       1.143  -1.263  -2.653  1.00  0.00    +0.027 A 
ATOM     22  C   UNL     1       1.060  -0.768  -0.301  1.00  0.00    +0.030 A 
ATOM     23  C   UNL     1       1.794  -0.852  -1.486  1.00  0.00    +0.043 A 
ATOM     24  C   UNL     1      -1.039  -0.972   1.054  1.00  0.00    +0.045 C 
BRANCH  23  25
ATOM     25  N   UNL     1       3.169  -0.550  -1.600  1.00  0.00    -0.308 N 
ATOM     26  C   UNL     1       4.042  -0.121  -0.609  1.00  0.00    +0.325 C 
ATOM     27  O   UNL     1       3.738   0.072   0.560  1.00  0.00    -0.248 OA
ATOM     28  N   UNL     1       5.307   0.057  -1.139  1.00  0.00    -0.283 N 
ATOM     29  H   UNL     1       3.549  -0.664  -2.526  1.00  0.00    +0.171 HD
ATOM     30  H   UNL     1       5.466  -0.130  -2.113  1.00  0.00    +0.174 HD
BRANCH  28  31
ATOM     31  C   UNL     1       6.438   0.474  -0.485  1.00  0.00    +0.191 A 
ATOM     32  N   UNL     1       7.573   0.592  -1.134  1.00  0.00    -0.220 NA
ATOM     33  S   UNL     1       6.476   0.865   1.169  1.00  0.00    -0.097 S 
ATOM     34  C   UNL     1       8.563   1.025  -0.265  1.00  0.00    +0.084 A 
ATOM     35  C   UNL     1       8.152   1.230   1.052  1.00  0.00    +0.057 A 
ATOM     36  C   UNL     1       9.909   1.270  -0.599  1.00  0.00    +0.030 A 
ATOM     37  C   UNL     1       9.039   1.669   2.049  1.00  0.00    +0.024 A 
ATOM     38  C   UNL     1      10.803   1.707   0.386  1.00  0.00    +0.006 A 
ATOM     39  C   UNL     1      10.382   1.894   1.705  1.00  0.00    -0.050 A 
ATOM     40  C   UNL     1      11.346   2.394   2.742  1.00  0.00    +0.044 C 
ENDBRANCH  28  31
ENDBRANCH  23  25
ENDBRANCH   6  18
TORSDOF 6
