REMARK SMILES CC(=O)NC[C@H]1CN(c2ccc(N3CC[NH+](C(=O)C(=O)/C=C/c4ccc(C(F)(F)F)cc4)CC3)c(F)c2)C(=O)O1
REMARK SMILES IDX 13 1 14 2 15 3 16 4 33 5 34 6 12 8 9 9 10 10 37 11 11 12
REMARK SMILES IDX 35 13 36 14 8 15 6 16 7 17 40 18 38 19 39 20 5 21 4 22 2 23
REMARK SMILES IDX 3 24 1 25 17 27 18 28 19 29 20 30 21 31 22 32 23 33 24 34
REMARK SMILES IDX 32 35 25 36 31 37 26 38 27 39 28 40 29 41 30 42
REMARK H PARENT 16 7 4 26
ROOT
ATOM      1  N   UNL     1       0.436   0.175   1.018  1.00  0.00    -0.358 N 
ATOM      2  C   UNL     1      -0.178   1.094   0.049  1.00  0.00    +0.178 C 
ATOM      3  C   UNL     1      -0.583   0.311  -1.221  1.00  0.00    +0.292 C 
ATOM      4  N   UNL     1      -1.398  -0.922  -0.907  1.00  0.00    -0.261 N 
ATOM      5  C   UNL     1      -0.818  -1.789   0.189  1.00  0.00    +0.292 C 
ATOM      6  C   UNL     1      -0.404  -0.961   1.423  1.00  0.00    +0.178 C 
ATOM      7  H   UNL     1      -1.420  -1.498  -1.765  1.00  0.00    +0.357 HD
ENDROOT
BRANCH   1   8
ATOM      8  C   UNL     1       1.815   0.155   1.180  1.00  0.00    +0.073 A 
ATOM      9  C   UNL     1       4.673   0.181   1.521  1.00  0.00    +0.050 A 
ATOM     10  C   UNL     1       3.923   1.364   1.508  1.00  0.00    +0.029 A 
ATOM     11  C   UNL     1       3.974  -1.016   1.370  1.00  0.00    +0.068 A 
ATOM     12  C   UNL     1       2.527   1.348   1.341  1.00  0.00    +0.031 A 
ATOM     13  C   UNL     1       2.584  -1.021   1.208  1.00  0.00    +0.148 A 
ATOM     14  F   UNL     1       1.991  -2.213   1.025  1.00  0.00    -0.205 F 
BRANCH   9  15
ATOM     15  N   UNL     1       6.082   0.217   1.675  1.00  0.00    -0.274 N 
ATOM     16  C   UNL     1       8.261   0.986   1.610  1.00  0.00    +0.217 C 
ATOM     17  C   UNL     1       6.832   1.431   1.825  1.00  0.00    +0.176 C 
ATOM     18  O   UNL     1       8.242  -0.415   1.909  1.00  0.00    -0.442 OA
ATOM     19  C   UNL     1       6.951  -0.862   1.766  1.00  0.00    +0.414 C 
ATOM     20  O   UNL     1       6.691  -2.054   1.730  1.00  0.00    -0.224 OA
BRANCH  16  21
ATOM     21  C   UNL     1       8.807   1.209   0.189  1.00  0.00    +0.163 C 
BRANCH  21  22
ATOM     22  N   UNL     1       8.155   0.409  -0.836  1.00  0.00    -0.353 N 
ATOM     23  C   UNL     1       7.068   0.850  -1.550  1.00  0.00    +0.217 C 
ATOM     24  O   UNL     1       6.533   1.939  -1.371  1.00  0.00    -0.275 OA
ATOM     25  C   UNL     1       6.548  -0.151  -2.544  1.00  0.00    +0.114 C 
ATOM     26  H   UNL     1       8.512  -0.526  -1.002  1.00  0.00    +0.163 HD
ENDBRANCH  21  22
ENDBRANCH  16  21
ENDBRANCH   9  15
ENDBRANCH   1   8
BRANCH   4  27
ATOM     27  C   UNL     1      -2.831  -0.625  -0.696  1.00  0.00    +0.384 C 
ATOM     28  O   UNL     1      -3.104   0.103   0.232  1.00  0.00    -0.222 OA
BRANCH  27  29
ATOM     29  C   UNL     1      -3.825  -1.243  -1.671  1.00  0.00    +0.282 C 
ATOM     30  O   UNL     1      -3.299  -1.887  -2.579  1.00  0.00    -0.279 OA
BRANCH  29  31
ATOM     31  C   UNL     1      -5.293  -1.104  -1.560  1.00  0.00    +0.063 C 
ATOM     32  C   UNL     1      -5.960  -0.491  -0.571  1.00  0.00    +0.012 C 
BRANCH  32  33
ATOM     33  C   UNL     1      -7.429  -0.391  -0.542  1.00  0.00    -0.025 A 
ATOM     34  C   UNL     1      -8.015   0.792  -0.075  1.00  0.00    +0.009 A 
ATOM     35  C   UNL     1      -8.261  -1.456  -0.910  1.00  0.00    +0.009 A 
ATOM     36  C   UNL     1      -9.406   0.921  -0.007  1.00  0.00    +0.013 A 
ATOM     37  C   UNL     1      -9.653  -1.328  -0.841  1.00  0.00    +0.013 A 
ATOM     38  C   UNL     1     -10.241  -0.135  -0.399  1.00  0.00    +0.056 A 
BRANCH  38  39
ATOM     39  C   UNL     1     -11.743  -0.006  -0.303  1.00  0.00    +0.416 C 
ATOM     40  F   UNL     1     -12.178   1.273  -0.474  1.00  0.00    -0.166 F 
ATOM     41  F   UNL     1     -12.400  -0.753  -1.233  1.00  0.00    -0.166 F 
ATOM     42  F   UNL     1     -12.216  -0.408   0.908  1.00  0.00    -0.166 F 
ENDBRANCH  38  39
ENDBRANCH  32  33
ENDBRANCH  29  31
ENDBRANCH  27  29
ENDBRANCH   4  27
TORSDOF 9
