REMARK SMILES CCOC(=O)c1c(C)nc2cccc(F)c2c1N
REMARK SMILES IDX 4 1 5 2 3 3 2 4 1 5 6 6 7 7 17 8 9 9 16 10 10 11 14 12 11 13
REMARK SMILES IDX 13 14 12 15 8 16 15 17 18 18
REMARK H PARENT 18 19 18 20
ROOT
ATOM      1  C   UNL     1       1.699  -0.197   0.535  1.00  0.00    +0.342 C 
ATOM      2  O   UNL     1       2.116  -0.467   1.650  1.00  0.00    -0.246 OA
ENDROOT
BRANCH   1   3
ATOM      3  O   UNL     1       2.444   0.153  -0.542  1.00  0.00    -0.462 OA
BRANCH   3   4
ATOM      4  C   UNL     1       3.864   0.191  -0.333  1.00  0.00    +0.230 C 
ATOM      5  C   UNL     1       4.461  -1.184  -0.563  1.00  0.00    +0.049 C 
ENDBRANCH   3   4
ENDBRANCH   1   3
BRANCH   1   6
ATOM      6  C   UNL     1       0.264  -0.129   0.189  1.00  0.00    +0.105 A 
ATOM      7  C   UNL     1      -0.244  -0.765  -0.943  1.00  0.00    +0.055 A 
ATOM      8  C   UNL     1      -0.621   0.560   1.042  1.00  0.00    +0.060 A 
ATOM      9  N   UNL     1      -1.554  -0.682  -1.292  1.00  0.00    -0.252 NA
ATOM     10  C   UNL     1      -1.987   0.669   0.663  1.00  0.00    +0.060 A 
ATOM     11  C   UNL     1      -2.395   0.022  -0.521  1.00  0.00    +0.076 A 
ATOM     12  C   UNL     1      -2.973   1.373   1.395  1.00  0.00    +0.134 A 
ATOM     13  C   UNL     1      -3.724   0.101  -0.921  1.00  0.00    +0.029 A 
ATOM     14  C   UNL     1      -4.300   1.445   0.981  1.00  0.00    +0.040 A 
ATOM     15  C   UNL     1      -4.680   0.805  -0.187  1.00  0.00    +0.005 A 
ATOM     16  C   UNL     1       0.603  -1.593  -1.866  1.00  0.00    +0.068 C 
ATOM     17  F   UNL     1      -2.649   1.998   2.540  1.00  0.00    -0.206 F 
BRANCH   8  18
ATOM     18  N   UNL     1      -0.143   1.236   2.175  1.00  0.00    -0.397 N 
ATOM     19  H   UNL     1      -0.813   1.651   2.816  1.00  0.00    +0.156 HD
ATOM     20  H   UNL     1       0.754   0.952   2.567  1.00  0.00    +0.156 HD
ENDBRANCH   8  18
ENDBRANCH   1   6
TORSDOF 4
