REMARK SMILES Cc1cn(-c2cc(NC(=O)Nc3ccc(-c4nc5[n-]ncc5[n-]4)c(C)c3)cc(C(F)(F)F)c2)cn1
REMARK SMILES IDX 5 1 6 2 7 3 27 4 28 5 33 6 4 7 2 8 3 9 35 10 34 11 1 12 8 13
REMARK SMILES IDX 9 14 10 15 11 16 12 19 13 20 26 21 14 22 24 23 15 24 25 25
REMARK SMILES IDX 16 26 17 27 23 28 18 29 22 30 19 31 21 32 20 33 29 34 30 35
REMARK SMILES IDX 31 36 32 37
REMARK H PARENT 8 17 11 18
ROOT
ATOM      1  C   UNL     1      -4.454   0.295  -0.708  1.00  0.00    +0.049 A 
ATOM      2  C   UNL     1      -3.082   0.475  -0.463  1.00  0.00    +0.052 A 
ATOM      3  C   UNL     1      -2.510   1.752  -0.465  1.00  0.00    +0.045 A 
ATOM      4  C   UNL     1      -3.327   2.862  -0.706  1.00  0.00    +0.039 A 
ATOM      5  C   UNL     1      -4.701   2.711  -0.944  1.00  0.00    +0.060 A 
ATOM      6  C   UNL     1      -5.255   1.421  -0.951  1.00  0.00    +0.039 A 
ENDROOT
BRANCH   1   7
ATOM      7  N   UNL     1      -5.026  -1.014  -0.709  1.00  0.00    -0.306 N 
ATOM      8  C   UNL     1      -6.433  -2.717  -0.822  1.00  0.00    +0.056 A 
ATOM      9  C   UNL     1      -6.352  -1.345  -0.912  1.00  0.00    +0.116 A 
ATOM     10  N   UNL     1      -5.200  -3.248  -0.570  1.00  0.00    -0.242 NA
ATOM     11  C   UNL     1      -4.383  -2.218  -0.509  1.00  0.00    +0.204 A 
ATOM     12  C   UNL     1      -7.615  -3.595  -0.958  1.00  0.00    +0.068 C 
ENDBRANCH   1   7
BRANCH   3  13
ATOM     13  N   UNL     1      -1.144   2.010  -0.228  1.00  0.00    -0.308 N 
ATOM     14  C   UNL     1      -0.118   1.091  -0.019  1.00  0.00    +0.323 C 
ATOM     15  O   UNL     1      -0.262  -0.123  -0.068  1.00  0.00    -0.248 OA
ATOM     16  N   UNL     1       1.066   1.760   0.244  1.00  0.00    -0.308 N 
ATOM     17  H   UNL     1      -0.859   2.976  -0.248  1.00  0.00    +0.171 HD
ATOM     18  H   UNL     1       1.021   2.761   0.336  1.00  0.00    +0.171 HD
BRANCH  16  19
ATOM     19  C   UNL     1       2.355   1.220   0.444  1.00  0.00    +0.043 A 
ATOM     20  C   UNL     1       3.375   2.132   0.728  1.00  0.00    +0.027 A 
ATOM     21  C   UNL     1       2.667  -0.139   0.365  1.00  0.00    +0.030 A 
ATOM     22  C   UNL     1       4.682   1.690   0.928  1.00  0.00    +0.010 A 
ATOM     23  C   UNL     1       3.988  -0.604   0.567  1.00  0.00    -0.042 A 
ATOM     24  C   UNL     1       5.001   0.329   0.849  1.00  0.00    -0.024 A 
ATOM     25  C   UNL     1       4.258  -2.079   0.468  1.00  0.00    +0.045 C 
BRANCH  24  26
ATOM     26  C   UNL     1       6.536  -0.053   1.092  1.00  0.00    -0.051 A 
ATOM     27  N   UNL     1       7.510   0.903   1.366  1.00  0.00    -0.438 NA
ATOM     28  N   UNL     1       7.074  -1.333   1.058  1.00  0.00    -0.434 NA
ATOM     29  C   UNL     1       8.630   0.187   1.495  1.00  0.00    -0.037 A 
ATOM     30  C   UNL     1       8.361  -1.086   1.316  1.00  0.00    -0.022 A 
ATOM     31  N   UNL     1       9.901   0.497   1.754  1.00  0.00    -0.354 NA
ATOM     32  C   UNL     1       9.552  -1.692   1.467  1.00  0.00    +0.113 A 
ATOM     33  N   UNL     1      10.544  -0.768   1.740  1.00  0.00    -0.267 NA
ENDBRANCH  24  26
ENDBRANCH  16  19
ENDBRANCH   3  13
BRANCH   5  34
ATOM     34  C   UNL     1      -5.566   3.914  -1.227  1.00  0.00    +0.416 C 
ATOM     35  F   UNL     1      -6.837   3.778  -0.755  1.00  0.00    -0.166 F 
ATOM     36  F   UNL     1      -5.689   4.162  -2.559  1.00  0.00    -0.166 F 
ATOM     37  F   UNL     1      -5.088   5.064  -0.674  1.00  0.00    -0.166 F 
ENDBRANCH   5  34
TORSDOF 5
