REMARK SMILES CC1(C)O[C@@H]2CC(=O)O[C@@]23C[C@]24CC[C@]5(C)C(=O)[C@](C)(O)[C@]6(O)[C@H]7OC(=O)[C@](C)(O)[C@H]7O[C@@](O2)(C(=O)C4=CC[C@@H]13)[C@@H]65
REMARK SMILES IDX 12 1 15 2 16 3 17 4 18 5 19 6 20 7 22 8 24 9 25 10 26 11
REMARK SMILES IDX 27 12 28 13 29 14 31 15 32 16 33 17 34 18 35 19 36 20 37 21
REMARK SMILES IDX 38 22 41 23 39 24 40 25 2 26 4 27 5 28 10 29 6 30 9 31 7 32
REMARK SMILES IDX 8 33 1 34 3 35 11 37 13 39 14 41 23 43 30 45 21 47
REMARK H PARENT 23 44 30 46 21 48
REMARK Flexibility Score:   35.800
ROOT
ATOM      1  C   UNL     1       0.725  -0.093   0.035  1.00  0.00    +0.104 C 
ATOM      2  C   UNL     1      -1.852  -0.732  -1.985  1.00  0.00    +0.041 C 
ATOM      3  C   UNL     1      -2.582  -1.765  -2.868  1.00  0.00    +0.020 C 
ATOM      4  C   UNL     1      -2.300   0.635  -2.469  1.00  0.00    +0.173 C 
ATOM      5  O   UNL     1      -2.008   1.096  -3.570  1.00  0.00    -0.296 OA
ATOM      6  C   UNL     1      -3.044   1.425  -1.424  1.00  0.00    +0.153 C 
ATOM      7  C   UNL     1      -4.225   2.187  -2.014  1.00  0.00    +0.054 C 
ATOM      8  C   UNL     1      -3.415   0.342  -0.367  1.00  0.00    +0.149 C 
ATOM      9  C   UNL     1      -3.475   0.959   1.051  1.00  0.00    +0.244 C 
ATOM     10  O   UNL     1      -4.821   1.358   1.355  1.00  0.00    -0.454 OA
ATOM     11  C   UNL     1      -5.298   0.625   2.401  1.00  0.00    +0.341 C 
ATOM     12  O   UNL     1      -6.406   0.791   2.890  1.00  0.00    -0.249 OA
ATOM     13  C   UNL     1      -4.291  -0.418   2.852  1.00  0.00    +0.189 C 
ATOM     14  C   UNL     1      -4.740  -1.806   2.406  1.00  0.00    +0.058 C 
ATOM     15  C   UNL     1      -3.004   0.084   2.198  1.00  0.00    +0.209 C 
ATOM     16  O   UNL     1      -2.116  -0.968   1.864  1.00  0.00    -0.332 OA
ATOM     17  C   UNL     1      -1.414  -0.845   0.636  1.00  0.00    +0.241 C 
ATOM     18  O   UNL     1      -0.560   0.288   0.596  1.00  0.00    -0.331 OA
ATOM     19  C   UNL     1      -0.460  -2.032   0.630  1.00  0.00    +0.221 C 
ATOM     20  O   UNL     1      -0.740  -3.216   0.734  1.00  0.00    -0.288 OA
ATOM     21  C   UNL     1       0.908  -1.522   0.399  1.00  0.00    +0.029 C 
ATOM     22  C   UNL     1       2.013  -2.267   0.445  1.00  0.00    -0.016 C 
ATOM     23  C   UNL     1      -2.393  -0.823  -0.525  1.00  0.00    +0.110 C 
ENDROOT
BRANCH  22  24
ATOM     24  C   UNL     1       3.351  -1.792  -0.018  1.00  0.00    +0.038 C 
BRANCH  24  25
ATOM     25  C   UNL     1       3.982  -0.598   0.720  1.00  0.00    +0.071 C 
ATOM     26  C   UNL     1       5.393  -0.258   0.131  1.00  0.00    +0.070 C 
ATOM     27  O   UNL     1       5.183   0.817  -0.814  1.00  0.00    -0.367 OA
ATOM     28  C   UNL     1       3.846   1.337  -0.688  1.00  0.00    +0.174 C 
ATOM     29  C   UNL     1       3.244   0.744   0.568  1.00  0.00    +0.148 CG0
ATOM     30  C   UNL     1       3.917   2.822  -0.437  1.00  0.00    +0.159 C 
ATOM     31  O   UNL     1       3.739   1.654   1.595  1.00  0.00    -0.456 OA
ATOM     32  C   UNL     1       4.037   2.873   1.052  1.00  0.00    +0.309 C 
ATOM     33  O   UNL     1       4.323   3.860   1.708  1.00  0.00    -0.252 OA
ATOM     34  C   UNL     1       6.380   0.225   1.209  1.00  0.00    +0.042 C 
ATOM     35  C   UNL     1       6.104  -1.377  -0.645  1.00  0.00    +0.042 C 
ATOM     36  G   UNL     1       1.719   0.836   0.742  1.00  0.00    +0.000 G0
ENDBRANCH  24  25
ENDBRANCH  22  24
BRANCH   1  37
ATOM     37  C   UNL     1       1.719   0.836   0.742  1.00  0.00    +0.092 CG0
ATOM     38  G   UNL     1       3.244   0.744   0.568  1.00  0.00    +0.000 G0
ENDBRANCH   1  37
BRANCH   1  39
ATOM     39  C   UNL     1       0.626   0.092  -1.489  1.00  0.00    +0.042 CG1
ATOM     40  G   UNL     1      -0.332  -0.873  -2.227  1.00  0.00    +0.000 G1
ENDBRANCH   1  39
BRANCH   2  41
ATOM     41  C   UNL     1      -0.332  -0.873  -2.227  1.00  0.00    +0.019 CG1
ATOM     42  G   UNL     1       0.626   0.092  -1.489  1.00  0.00    +0.000 G1
ENDBRANCH   2  41
BRANCH   8  43
ATOM     43  O   UNL     1      -4.701  -0.231  -0.692  1.00  0.00    -0.382 OA
ATOM     44  H   UNL     1      -5.391   0.410  -0.423  1.00  0.00    +0.211 HD
ENDBRANCH   8  43
BRANCH  13  45
ATOM     45  O   UNL     1      -4.152  -0.432   4.273  1.00  0.00    -0.376 OA
ATOM     46  H   UNL     1      -5.047  -0.557   4.645  1.00  0.00    +0.212 HD
ENDBRANCH  13  45
BRANCH   6  47
ATOM     47  O   UNL     1      -2.074   2.363  -0.947  1.00  0.00    -0.379 OA
ATOM     48  H   UNL     1      -1.854   2.952  -1.697  1.00  0.00    +0.212 HD
ENDBRANCH   6  47
TORSDOF 3
