REMARK SMILES COc1ccc([C@@H]2[C@@H](CCc3ccccc3)CC(=O)[NH+]2c2ccc(OC)cc2)cc1
REMARK SMILES IDX 7 1 8 2 17 3 18 4 19 5 20 6 6 8 3 9 4 10 30 11 5 12 29 13
REMARK SMILES IDX 2 14 1 15 9 16 10 17 11 18 12 19 16 20 13 21 15 22 14 23
REMARK SMILES IDX 21 24 22 25 28 26 23 27 27 28 24 29 25 30 26 31
REMARK H PARENT 20 7
ROOT
ATOM      1  C   UNL     1      -0.255   0.520   0.772  1.00  0.00    +0.231 C 
ATOM      2  C   UNL     1      -1.434   0.917   1.692  1.00  0.00    +0.067 C 
ATOM      3  C   UNL     1      -1.924  -0.406   2.292  1.00  0.00    +0.156 C 
ATOM      4  C   UNL     1      -0.620  -1.117   2.424  1.00  0.00    +0.318 C 
ATOM      5  O   UNL     1      -0.293  -1.981   3.208  1.00  0.00    -0.231 OA
ATOM      6  N   UNL     1       0.400  -0.636   1.501  1.00  0.00    -0.233 N 
ATOM      7  H   UNL     1       1.149  -0.314   2.121  1.00  0.00    +0.363 HD
ENDROOT
BRANCH   1   8
ATOM      8  C   UNL     1       0.734   1.620   0.459  1.00  0.00    +0.011 A 
ATOM      9  C   UNL     1       2.641   3.601  -0.194  1.00  0.00    +0.118 A 
ATOM     10  C   UNL     1       2.096   2.786  -1.185  1.00  0.00    +0.047 A 
ATOM     11  C   UNL     1       2.238   3.422   1.127  1.00  0.00    +0.047 A 
ATOM     12  C   UNL     1       1.154   1.805  -0.867  1.00  0.00    +0.014 A 
ATOM     13  C   UNL     1       1.295   2.438   1.453  1.00  0.00    +0.014 A 
BRANCH   9  14
ATOM     14  O   UNL     1       3.550   4.514  -0.644  1.00  0.00    -0.497 OA
ATOM     15  C   UNL     1       4.090   5.423   0.309  1.00  0.00    +0.278 C 
ENDBRANCH   9  14
ENDBRANCH   1   8
BRANCH   2  16
ATOM     16  C   UNL     1      -2.539   1.787   1.059  1.00  0.00    +0.015 C 
BRANCH  16  17
ATOM     17  C   UNL     1      -2.961   1.511  -0.394  1.00  0.00    +0.036 C 
BRANCH  17  18
ATOM     18  C   UNL     1      -3.525   0.139  -0.653  1.00  0.00    -0.048 A 
ATOM     19  C   UNL     1      -4.670  -0.304   0.024  1.00  0.00    +0.004 A 
ATOM     20  C   UNL     1      -2.941  -0.701  -1.612  1.00  0.00    +0.004 A 
ATOM     21  C   UNL     1      -5.186  -1.579  -0.214  1.00  0.00    +0.000 A 
ATOM     22  C   UNL     1      -3.460  -1.975  -1.850  1.00  0.00    +0.000 A 
ATOM     23  C   UNL     1      -4.576  -2.417  -1.144  1.00  0.00    +0.000 A 
ENDBRANCH  17  18
ENDBRANCH  16  17
ENDBRANCH   2  16
BRANCH   6  24
ATOM     24  C   UNL     1       0.971  -1.625   0.585  1.00  0.00    +0.139 A 
ATOM     25  C   UNL     1       0.170  -2.568  -0.060  1.00  0.00    +0.072 A 
ATOM     26  C   UNL     1       2.345  -1.585   0.332  1.00  0.00    +0.072 A 
ATOM     27  C   UNL     1       0.751  -3.468  -0.955  1.00  0.00    +0.052 A 
ATOM     28  C   UNL     1       2.920  -2.492  -0.567  1.00  0.00    +0.052 A 
ATOM     29  C   UNL     1       2.124  -3.437  -1.214  1.00  0.00    +0.119 A 
BRANCH  29  30
ATOM     30  O   UNL     1       2.552  -4.370  -2.113  1.00  0.00    -0.497 OA
ATOM     31  C   UNL     1       3.949  -4.430  -2.380  1.00  0.00    +0.278 C 
ENDBRANCH  29  30
ENDBRANCH   6  24
TORSDOF 7
