REMARK SMILES CCCCC1=C(c2ccc(C(C)(C)C)cc2)N2CCC[NH+]=C2c2ccccc21
REMARK SMILES IDX 5 1 6 2 17 3 18 4 19 5 20 6 21 7 22 8 23 9 24 10 25 11 26 12
REMARK SMILES IDX 27 13 28 14 4 16 3 17 2 18 1 19 7 20 8 21 16 22 9 23 15 24
REMARK SMILES IDX 10 25 11 26 12 27 13 28 14 29
REMARK H PARENT 21 15
ROOT
ATOM      1  C   UNL     1      -1.684   0.101   0.890  1.00  0.00    +0.008 C 
ATOM      2  C   UNL     1      -0.850  -0.800   0.317  1.00  0.00    +0.138 C 
ATOM      3  N   UNL     1      -1.266  -2.081  -0.101  1.00  0.00    -0.226 N 
ATOM      4  C   UNL     1      -0.288  -3.000  -0.747  1.00  0.00    +0.247 C 
ATOM      5  C   UNL     1      -0.740  -4.438  -0.649  1.00  0.00    +0.092 C 
ATOM      6  C   UNL     1      -2.119  -4.519  -1.239  1.00  0.00    +0.238 C 
ATOM      7  N   UNL     1      -2.979  -3.586  -0.522  1.00  0.00    -0.274 N 
ATOM      8  C   UNL     1      -2.552  -2.442   0.006  1.00  0.00    +0.282 C 
ATOM      9  C   UNL     1      -3.520  -1.572   0.720  1.00  0.00    +0.071 A 
ATOM     10  C   UNL     1      -4.844  -1.976   1.005  1.00  0.00    +0.017 A 
ATOM     11  C   UNL     1      -5.735  -1.131   1.666  1.00  0.00    +0.001 A 
ATOM     12  C   UNL     1      -5.320   0.128   2.061  1.00  0.00    +0.001 A 
ATOM     13  C   UNL     1      -4.011   0.538   1.807  1.00  0.00    +0.009 A 
ATOM     14  C   UNL     1      -3.093  -0.300   1.146  1.00  0.00    -0.003 A 
ATOM     15  H   UNL     1      -3.962  -3.812  -0.460  1.00  0.00    +0.305 HD
ENDROOT
BRANCH   1  16
ATOM     16  C   UNL     1      -1.243   1.499   1.316  1.00  0.00    +0.041 C 
BRANCH  16  17
ATOM     17  C   UNL     1      -1.647   2.575   0.299  1.00  0.00    +0.005 C 
BRANCH  17  18
ATOM     18  C   UNL     1      -1.180   3.961   0.748  1.00  0.00    -0.003 C 
ATOM     19  C   UNL     1      -1.571   5.032  -0.258  1.00  0.00    +0.004 C 
ENDBRANCH  17  18
ENDBRANCH  16  17
ENDBRANCH   1  16
BRANCH   2  20
ATOM     20  C   UNL     1       0.559  -0.418   0.057  1.00  0.00    +0.022 A 
ATOM     21  C   UNL     1       1.543  -0.622   1.030  1.00  0.00    +0.013 A 
ATOM     22  C   UNL     1       0.924   0.148  -1.168  1.00  0.00    +0.013 A 
ATOM     23  C   UNL     1       2.874  -0.268   0.780  1.00  0.00    +0.005 A 
ATOM     24  C   UNL     1       2.254   0.501  -1.412  1.00  0.00    +0.005 A 
ATOM     25  C   UNL     1       3.260   0.301  -0.446  1.00  0.00    -0.043 A 
BRANCH  25  26
ATOM     26  C   UNL     1       4.714   0.711  -0.750  1.00  0.00    -0.013 C 
ATOM     27  C   UNL     1       4.775   2.228  -1.031  1.00  0.00    +0.016 C 
ATOM     28  C   UNL     1       5.700   0.419   0.404  1.00  0.00    +0.016 C 
ATOM     29  C   UNL     1       5.222  -0.057  -1.989  1.00  0.00    +0.016 C 
ENDBRANCH  25  26
ENDBRANCH   2  20
TORSDOF 5
