REMARK SMILES C/C1=C\C(=O)OC[C@]23CC[C@]4(C)O[C@H]4[C@H]2O[C@@H]2C[C@@H](OC(=O)/C=C\C=C\[C@H]4O[C@H](C1)O[C@@H]4C)[C@@]3(C)[C@]21CO1
REMARK SMILES IDX 6 1 4 2 5 3 3 4 2 5 1 6 30 7 29 8 28 9 31 10 27 11 32 12
REMARK SMILES IDX 33 13 26 14 25 15 7 17 8 18 9 19 15 20 34 21 10 22 14 23
REMARK SMILES IDX 16 24 19 25 36 26 11 27 13 28 17 29 18 30 37 31 38 32 35 33
REMARK SMILES IDX 12 34 20 35 21 36 22 37 23 38 24 39
REMARK H PARENT
REMARK Flexibility Score:  121.900
ROOT
ATOM      1  O   UNL     1       0.199   1.203  -1.503  1.00  0.00    -0.462 OA
ENDROOT
BRANCH   1   2
ATOM      2  C   UNL     1      -0.289   2.443  -1.246  1.00  0.00    +0.330 C 
ATOM      3  O   UNL     1       0.348   3.416  -0.884  1.00  0.00    -0.247 OA
BRANCH   2   4
ATOM      4  C   UNL     1      -1.744   2.424  -1.513  1.00  0.00    +0.092 C 
ATOM      5  C   UNL     1      -2.685   2.991  -0.730  1.00  0.00    -0.061 C 
ATOM      6  C   UNL     1      -2.404   3.678   0.579  1.00  0.00    +0.040 C 
BRANCH   5   7
ATOM      7  C   UNL     1      -4.150   2.992  -1.163  1.00  0.00    +0.093 C 
BRANCH   7   8
ATOM      8  C   UNL     1      -4.990   1.773  -0.735  1.00  0.00    +0.255 C 
ATOM      9  O   UNL     1      -4.522   0.574  -1.370  1.00  0.00    -0.342 OA
ATOM     10  O   UNL     1      -5.005   1.610   0.691  1.00  0.00    -0.346 OA
ATOM     11  C   UNL     1      -3.955  -0.188  -0.302  1.00  0.00    +0.173 C 
ATOM     12  C   UNL     1      -4.820   0.201   0.885  1.00  0.00    +0.151 C 
ATOM     13  C   UNL     1      -4.179  -0.065   2.232  1.00  0.00    +0.042 C 
BRANCH  11  14
ATOM     14  C   UNL     1      -3.937  -1.639  -0.676  1.00  0.00    +0.007 C 
ATOM     15  C   UNL     1      -2.807  -2.229  -1.093  1.00  0.00    -0.001 CG0
ATOM     16  G   UNL     1      -2.666  -3.626  -1.425  1.00  0.00    +0.000 G0
ENDBRANCH  11  14
ENDBRANCH   7   8
ENDBRANCH   5   7
ENDBRANCH   2   4
ENDBRANCH   1   2
BRANCH   1  17
ATOM     17  C   UNL     1       1.624   1.047  -1.506  1.00  0.00    +0.243 C 
BRANCH  17  18
ATOM     18  C   UNL     1       2.224   0.288  -0.260  1.00  0.00    +0.045 C 
ATOM     19  C   UNL     1       2.320   1.359   0.925  1.00  0.00    +0.017 C 
ATOM     20  C   UNL     1       3.687  -0.227  -0.724  1.00  0.00    +0.161 C 
ATOM     21  C   UNL     1       1.360  -0.986   0.201  1.00  0.00    +0.050 C 
ATOM     22  C   UNL     1       3.565   2.304   0.910  1.00  0.00    +0.039 C 
ATOM     23  C   UNL     1       4.573   0.960  -0.748  1.00  0.00    +0.180 C 
ATOM     24  O   UNL     1       4.230  -1.295   0.051  1.00  0.00    -0.368 OA
ATOM     25  C   UNL     1       1.289  -2.029  -0.988  1.00  0.00    +0.189 C 
ATOM     26  C   UNL     1       2.225  -1.772   1.179  1.00  0.00    +0.127 C 
ATOM     27  C   UNL     1       4.748   1.423   0.739  1.00  0.00    +0.095 C 
ATOM     28  O   UNL     1       5.789   1.375  -0.211  1.00  0.00    -0.364 OA
ATOM     29  C   UNL     1       3.319  -2.352   0.357  1.00  0.00    +0.157 C 
ATOM     30  C   UNL     1       2.573  -2.894  -0.870  1.00  0.00    +0.081 C 
ATOM     31  C   UNL     1       2.231  -1.708   2.691  1.00  0.00    +0.200 C 
ATOM     32  O   UNL     1       1.532  -2.741   1.987  1.00  0.00    -0.366 OA
ATOM     33  C   UNL     1      -0.009  -0.639   0.803  1.00  0.00    +0.019 C 
ATOM     34  C   UNL     1       5.183   0.623   1.936  1.00  0.00    +0.045 C 
BRANCH  25  35
ATOM     35  O   UNL     1       0.111  -2.851  -0.875  1.00  0.00    -0.458 OA
BRANCH  35  36
ATOM     36  C   UNL     1      -0.208  -3.584  -1.970  1.00  0.00    +0.331 C 
ATOM     37  O   UNL     1       0.488  -3.738  -2.961  1.00  0.00    -0.247 OA
BRANCH  36  38
ATOM     38  C   UNL     1      -1.528  -4.229  -1.813  1.00  0.00    +0.093 C 
ATOM     39  C   UNL     1      -2.666  -3.626  -1.425  1.00  0.00    +0.007 CG0
ATOM     40  G   UNL     1      -2.807  -2.229  -1.093  1.00  0.00    +0.000 G0
ENDBRANCH  36  38
ENDBRANCH  35  36
ENDBRANCH  25  35
ENDBRANCH  17  18
ENDBRANCH   1  17
TORSDOF 0
