REMARK SMILES Cc1ccc(NC(=O)c2cccc(C(F)(F)F)c2)cc1Nc1nc2ccccc2n1-c1cc([NH2+][C@H]2CC[C@H]([NH3+])CC2)ncn1
REMARK SMILES IDX 22 1 23 2 24 3 25 4 26 5 27 6 28 7 29 8 30 9 21 10 20 12
REMARK SMILES IDX 2 13 3 14 4 15 19 16 5 17 1 18 6 19 7 20 8 21 9 23 10 24
REMARK SMILES IDX 18 25 11 26 13 27 12 28 14 29 15 30 16 31 17 32 31 33 32 34
REMARK SMILES IDX 44 35 33 36 43 37 42 38 34 39 35 42 41 43 36 44 40 45 37 46
REMARK SMILES IDX 38 47 39 48
REMARK H PARENT 21 11 6 22 34 40 34 41 39 49 39 50 39 51
ROOT
ATOM      1  C   UNL     1      -0.267  -3.689  -2.706  1.00  0.00    +0.214 A 
ATOM      2  N   UNL     1      -0.077  -4.765  -3.430  1.00  0.00    -0.212 NA
ATOM      3  C   UNL     1      -0.683  -5.779  -2.737  1.00  0.00    +0.091 A 
ATOM      4  C   UNL     1      -0.860  -7.118  -3.116  1.00  0.00    +0.031 A 
ATOM      5  C   UNL     1      -1.533  -7.983  -2.247  1.00  0.00    +0.002 A 
ATOM      6  C   UNL     1      -2.014  -7.526  -1.021  1.00  0.00    +0.002 A 
ATOM      7  C   UNL     1      -1.834  -6.197  -0.620  1.00  0.00    +0.029 A 
ATOM      8  C   UNL     1      -1.167  -5.336  -1.507  1.00  0.00    +0.076 A 
ATOM      9  N   UNL     1      -0.749  -4.014  -1.436  1.00  0.00    -0.262 N 
ENDROOT
BRANCH   1  10
ATOM     10  N   UNL     1      -0.068  -2.420  -3.164  1.00  0.00    -0.325 N 
ATOM     11  H   UNL     1       0.380  -2.402  -4.084  1.00  0.00    +0.170 HD
BRANCH  10  12
ATOM     12  C   UNL     1      -1.052  -1.395  -3.094  1.00  0.00    +0.046 A 
ATOM     13  C   UNL     1      -2.333  -1.533  -3.666  1.00  0.00    -0.027 A 
ATOM     14  C   UNL     1      -3.215  -0.442  -3.637  1.00  0.00    +0.008 A 
ATOM     15  C   UNL     1      -2.831   0.780  -3.083  1.00  0.00    +0.026 A 
ATOM     16  C   UNL     1      -0.669  -0.143  -2.573  1.00  0.00    +0.052 A 
ATOM     17  C   UNL     1      -1.562   0.929  -2.528  1.00  0.00    +0.043 A 
ATOM     18  C   UNL     1      -2.802  -2.805  -4.325  1.00  0.00    +0.046 C 
BRANCH  17  19
ATOM     19  N   UNL     1      -1.228   2.188  -1.992  1.00  0.00    -0.322 N 
ATOM     20  C   UNL     1      -0.239   2.458  -1.073  1.00  0.00    +0.255 C 
ATOM     21  O   UNL     1       0.354   1.638  -0.368  1.00  0.00    -0.269 OA
ATOM     22  H   UNL     1      -1.839   2.955  -2.265  1.00  0.00    +0.170 HD
BRANCH  20  23
ATOM     23  C   UNL     1       0.043   3.905  -0.874  1.00  0.00    +0.040 A 
ATOM     24  C   UNL     1       0.128   4.787  -1.954  1.00  0.00    +0.014 A 
ATOM     25  C   UNL     1       0.286   4.367   0.424  1.00  0.00    +0.027 A 
ATOM     26  C   UNL     1       0.456   6.126  -1.729  1.00  0.00    +0.001 A 
ATOM     27  C   UNL     1       0.638   5.708   0.657  1.00  0.00    +0.056 A 
ATOM     28  C   UNL     1       0.715   6.583  -0.434  1.00  0.00    +0.013 A 
BRANCH  27  29
ATOM     29  C   UNL     1       0.956   6.158   2.059  1.00  0.00    +0.416 C 
ATOM     30  F   UNL     1       1.219   7.478   2.200  1.00  0.00    -0.166 F 
ATOM     31  F   UNL     1       2.054   5.495   2.556  1.00  0.00    -0.166 F 
ATOM     32  F   UNL     1      -0.038   5.854   2.939  1.00  0.00    -0.166 F 
ENDBRANCH  27  29
ENDBRANCH  20  23
ENDBRANCH  17  19
ENDBRANCH  10  12
ENDBRANCH   1  10
BRANCH   9  33
ATOM     33  C   UNL     1      -0.734  -3.194  -0.269  1.00  0.00    +0.149 A 
ATOM     34  C   UNL     1       0.224  -2.210  -0.147  1.00  0.00    +0.138 A 
ATOM     35  N   UNL     1      -1.625  -3.429   0.715  1.00  0.00    -0.218 NA
ATOM     36  C   UNL     1       0.150  -1.435   0.984  1.00  0.00    +0.229 A 
ATOM     37  C   UNL     1      -1.609  -2.609   1.770  1.00  0.00    +0.230 A 
ATOM     38  N   UNL     1      -0.755  -1.592   1.948  1.00  0.00    -0.185 NA
BRANCH  36  39
ATOM     39  N   UNL     1       1.093  -0.333   1.130  1.00  0.00    -0.295 N 
ATOM     40  H   UNL     1       0.594   0.505   0.762  1.00  0.00    +0.353 HD
ATOM     41  H   UNL     1       1.838  -0.483   0.442  1.00  0.00    +0.353 HD
BRANCH  39  42
ATOM     42  C   UNL     1       1.656  -0.177   2.506  1.00  0.00    +0.189 C 
ATOM     43  C   UNL     1       2.994   0.592   2.422  1.00  0.00    +0.071 C 
ATOM     44  C   UNL     1       0.653   0.539   3.436  1.00  0.00    +0.071 C 
ATOM     45  C   UNL     1       2.836   2.116   2.501  1.00  0.00    +0.071 C 
ATOM     46  C   UNL     1       1.345   1.444   4.461  1.00  0.00    +0.071 C 
ATOM     47  C   UNL     1       2.079   2.584   3.755  1.00  0.00    +0.181 C 
BRANCH  47  48
ATOM     48  N   UNL     1       3.009   3.242   4.706  1.00  0.00    -0.355 N 
ATOM     49  H   UNL     1       3.427   4.092   4.292  1.00  0.00    +0.344 HD
ATOM     50  H   UNL     1       3.787   2.646   5.020  1.00  0.00    +0.344 HD
ATOM     51  H   UNL     1       2.522   3.568   5.556  1.00  0.00    +0.344 HD
ENDBRANCH  47  48
ENDBRANCH  39  42
ENDBRANCH  36  39
ENDBRANCH   9  33
TORSDOF 9
