REMARK SMILES Nc1ccc(Nc2nc(-c3ccc(Cl)cc3)cs2)cc1
REMARK SMILES IDX 6 1 5 3 2 4 3 5 20 6 4 7 19 8 1 9 7 12 8 13 18 14 9 15 17 16
REMARK SMILES IDX 10 17 11 18 16 19 12 20 15 21 13 22 14 23
REMARK H PARENT 6 2 1 10 1 11
ROOT
ATOM      1  N   UNL     1       1.225   0.621  -0.415  1.00  0.00    -0.332 N 
ATOM      2  H   UNL     1       1.043   1.548  -0.781  1.00  0.00    +0.169 HD
ENDROOT
BRANCH   1   3
ATOM      3  C   UNL     1       2.579   0.374  -0.137  1.00  0.00    +0.040 A 
ATOM      4  C   UNL     1       5.352  -0.103   0.253  1.00  0.00    +0.032 A 
ATOM      5  C   UNL     1       4.914   0.769  -0.741  1.00  0.00    +0.027 A 
ATOM      6  C   UNL     1       4.399  -0.713   1.065  1.00  0.00    +0.027 A 
ATOM      7  C   UNL     1       3.546   0.998  -0.938  1.00  0.00    +0.028 A 
ATOM      8  C   UNL     1       3.030  -0.486   0.866  1.00  0.00    +0.028 A 
BRANCH   4   9
ATOM      9  N   UNL     1       6.701  -0.301   0.475  1.00  0.00    -0.399 N 
ATOM     10  H   UNL     1       7.385   0.085  -0.161  1.00  0.00    +0.156 HD
ATOM     11  H   UNL     1       7.011  -0.989   1.148  1.00  0.00    +0.156 HD
ENDBRANCH   4   9
ENDBRANCH   1   3
BRANCH   1  12
ATOM     12  C   UNL     1       0.114  -0.128  -0.223  1.00  0.00    +0.187 A 
ATOM     13  N   UNL     1      -1.081   0.418  -0.315  1.00  0.00    -0.220 NA
ATOM     14  S   UNL     1       0.077  -1.833   0.042  1.00  0.00    -0.105 S 
ATOM     15  C   UNL     1      -2.087  -0.520  -0.134  1.00  0.00    +0.084 A 
ATOM     16  C   UNL     1      -1.632  -1.803   0.088  1.00  0.00    +0.097 A 
BRANCH  15  17
ATOM     17  C   UNL     1      -3.494  -0.126  -0.171  1.00  0.00    +0.001 A 
ATOM     18  C   UNL     1      -4.527  -1.053  -0.376  1.00  0.00    +0.012 A 
ATOM     19  C   UNL     1      -3.832   1.227  -0.006  1.00  0.00    +0.012 A 
ATOM     20  C   UNL     1      -5.864  -0.638  -0.406  1.00  0.00    +0.021 A 
ATOM     21  C   UNL     1      -5.167   1.644  -0.034  1.00  0.00    +0.021 A 
ATOM     22  C   UNL     1      -6.177   0.708  -0.233  1.00  0.00    +0.041 A 
ATOM     23 Cl   UNL     1      -7.820   1.216  -0.270  1.00  0.00    -0.084 Cl
ENDBRANCH  15  17
ENDBRANCH   1  12
TORSDOF 4
