REMARK SMILES COC[C@@H](C1CC1)n1nc(C)nc(Nc2ccc(OC)nc2C(F)(F)F)c1=O
REMARK SMILES IDX 8 1 9 2 10 3 11 4 12 5 13 6 14 7 27 8 28 9 4 11 3 12 2 13
REMARK SMILES IDX 1 14 5 15 6 16 7 17 15 18 16 19 22 20 17 21 21 22 18 23
REMARK SMILES IDX 23 24 24 25 25 26 26 27 19 28 20 29
REMARK H PARENT 14 10
ROOT
ATOM      1  N   UNL     1      -2.097  -0.051   0.060  1.00  0.00    -0.219 N 
ATOM      2  N   UNL     1      -2.070  -1.221  -0.654  1.00  0.00    -0.154 NA
ATOM      3  C   UNL     1      -0.934  -1.799  -0.876  1.00  0.00    +0.148 C 
ATOM      4  C   UNL     1      -0.897  -3.078  -1.664  1.00  0.00    +0.092 C 
ATOM      5  N   UNL     1       0.285  -1.355  -0.447  1.00  0.00    -0.209 NA
ATOM      6  C   UNL     1       0.341  -0.250   0.227  1.00  0.00    +0.200 C 
ATOM      7  N   UNL     1       1.497   0.339   0.716  1.00  0.00    -0.334 N 
ATOM      8  C   UNL     1      -0.939   0.535   0.524  1.00  0.00    +0.310 C 
ATOM      9  O   UNL     1      -0.835   1.593   1.135  1.00  0.00    -0.264 OA
ATOM     10  H   UNL     1       1.331   1.239   1.175  1.00  0.00    +0.168 HD
ENDROOT
BRANCH   1  11
ATOM     11  C   UNL     1      -3.381   0.636   0.259  1.00  0.00    +0.140 C 
BRANCH  11  12
ATOM     12  C   UNL     1      -3.557   1.828  -0.710  1.00  0.00    +0.187 C 
BRANCH  12  13
ATOM     13  O   UNL     1      -3.569   1.399  -2.076  1.00  0.00    -0.382 OA
ATOM     14  C   UNL     1      -3.717   2.492  -2.971  1.00  0.00    +0.195 C 
ENDBRANCH  12  13
ENDBRANCH  11  12
BRANCH  11  15
ATOM     15  C   UNL     1      -4.556  -0.314   0.185  1.00  0.00    +0.016 C 
ATOM     16  C   UNL     1      -5.799  -0.071   1.008  1.00  0.00    +0.006 C 
ATOM     17  C   UNL     1      -4.888  -1.216   1.349  1.00  0.00    +0.006 C 
ENDBRANCH  11  15
ENDBRANCH   1  11
BRANCH   7  18
ATOM     18  C   UNL     1       2.819  -0.143   0.731  1.00  0.00    +0.071 A 
ATOM     19  C   UNL     1       3.121  -1.496   0.530  1.00  0.00    +0.034 A 
ATOM     20  C   UNL     1       3.925   0.721   0.889  1.00  0.00    +0.171 A 
ATOM     21  C   UNL     1       4.440  -1.947   0.514  1.00  0.00    +0.070 A 
ATOM     22  N   UNL     1       5.227   0.286   0.870  1.00  0.00    -0.207 NA
ATOM     23  C   UNL     1       5.451  -1.027   0.688  1.00  0.00    +0.213 A 
BRANCH  20  24
ATOM     24  C   UNL     1       3.714   2.219   1.031  1.00  0.00    +0.435 C 
ATOM     25  F   UNL     1       3.592   2.852  -0.172  1.00  0.00    -0.164 F 
ATOM     26  F   UNL     1       2.570   2.530   1.718  1.00  0.00    -0.164 F 
ATOM     27  F   UNL     1       4.715   2.865   1.694  1.00  0.00    -0.164 F 
ENDBRANCH  20  24
BRANCH  23  28
ATOM     28  O   UNL     1       6.740  -1.515   0.667  1.00  0.00    -0.481 OA
ATOM     29  C   UNL     1       7.725  -0.503   0.851  1.00  0.00    +0.280 C 
ENDBRANCH  23  28
ENDBRANCH   7  18
TORSDOF 7
