REMARK SMILES C/C=C(\C)C(=O)O[C@@H]1[C@@H]2OC[C@]3(C)[C@H](OC(C)=O)C[C@H](O)[C@@](C)([C@@H]23)[C@H]2CCO[C@H]3C[C@@H](C4=CCOC4=O)C(C)=C3[C@]12C
REMARK SMILES IDX 8 1 9 2 10 3 11 4 12 5 13 6 14 7 19 8 20 9 22 10 23 11 24 12
REMARK SMILES IDX 25 13 41 14 42 15 7 17 5 18 6 19 3 20 2 21 1 22 4 23 40 24
REMARK SMILES IDX 38 25 29 26 31 27 30 28 39 29 28 30 27 31 26 32 32 34 33 35
REMARK SMILES IDX 36 36 34 37 35 38 37 39 21 40 15 42 16 43 18 44 17 45
REMARK H PARENT 21 41
REMARK Flexibility Score:   23.900
ROOT
ATOM      1  C   UNL     1      -0.435   0.646   1.289  1.00  0.00    +0.216 C 
ATOM      2  C   UNL     1       0.836   0.788   2.141  1.00  0.00    +0.164 C 
ATOM      3  O   UNL     1       1.233   2.159   2.390  1.00  0.00    -0.373 OA
ATOM      4  C   UNL     1       2.663   2.283   2.133  1.00  0.00    +0.171 C 
ATOM      5  C   UNL     1       3.221   0.849   2.075  1.00  0.00    +0.034 C 
ATOM      6  C   UNL     1       3.531   0.417   3.523  1.00  0.00    +0.018 C 
ATOM      7  C   UNL     1       4.453   0.595   1.177  1.00  0.00    +0.187 C 
ATOM      8  C   UNL     1       4.586  -0.921   0.857  1.00  0.00    +0.078 C 
ATOM      9  C   UNL     1       3.295  -1.582   0.289  1.00  0.00    +0.124 C 
ATOM     10  C   UNL     1       1.990  -1.293   1.135  1.00  0.00    +0.004 C 
ATOM     11  C   UNL     1       2.079  -2.155   2.414  1.00  0.00    +0.015 C 
ATOM     12  C   UNL     1       2.016   0.209   1.409  1.00  0.00    +0.043 C 
ATOM     13  C   UNL     1       0.632  -1.538   0.310  1.00  0.00    +0.014 CG0
ATOM     14  C   UNL     1      -0.710  -0.863   0.897  1.00  0.00    +0.034 C 
ATOM     15  C   UNL     1      -1.183  -1.650   2.145  1.00  0.00    +0.020 C 
ATOM     16  G   UNL     1       0.443  -3.025  -0.086  1.00  0.00    +0.000 G0
ENDROOT
BRANCH   1  17
ATOM     17  O   UNL     1      -0.236   1.414   0.073  1.00  0.00    -0.455 OA
BRANCH  17  18
ATOM     18  C   UNL     1      -1.094   2.435  -0.165  1.00  0.00    +0.333 C 
ATOM     19  O   UNL     1      -2.046   2.757   0.529  1.00  0.00    -0.247 OA
BRANCH  18  20
ATOM     20  C   UNL     1      -0.722   3.097  -1.456  1.00  0.00    +0.030 C 
ATOM     21  C   UNL     1      -1.662   3.882  -2.021  1.00  0.00    -0.020 C 
ATOM     22  C   UNL     1      -1.569   4.640  -3.306  1.00  0.00    +0.036 C 
ATOM     23  C   UNL     1       0.657   2.849  -1.989  1.00  0.00    +0.052 C 
ENDBRANCH  18  20
ENDBRANCH  17  18
ENDBRANCH   1  17
BRANCH  14  24
ATOM     24  C   UNL     1      -1.864  -0.894  -0.146  1.00  0.00    -0.032 C 
ATOM     25  C   UNL     1      -3.181  -0.615   0.018  1.00  0.00    -0.063 C 
ATOM     26  C   UNL     1      -1.581  -1.110  -1.627  1.00  0.00    +0.146 C 
ATOM     27  C   UNL     1      -3.946  -0.643  -1.294  1.00  0.00    +0.055 C 
ATOM     28  C   UNL     1      -2.959  -1.293  -2.256  1.00  0.00    +0.049 C 
ATOM     29  C   UNL     1      -3.915  -0.129   1.230  1.00  0.00    +0.040 C 
BRANCH  26  30
ATOM     30  O   UNL     1      -0.780  -2.225  -2.002  1.00  0.00    -0.374 OA
BRANCH  30  31
ATOM     31  C   UNL     1      -0.704  -3.281  -1.060  1.00  0.00    +0.161 C 
BRANCH  31  32
ATOM     32  C   UNL     1       0.443  -3.025  -0.086  1.00  0.00    +0.034 CG0
ATOM     33  G   UNL     1       0.632  -1.538   0.310  1.00  0.00    +0.000 G0
ENDBRANCH  31  32
ENDBRANCH  30  31
ENDBRANCH  26  30
BRANCH  27  34
ATOM     34  C   UNL     1      -5.235  -1.396  -1.285  1.00  0.00    +0.044 C 
ATOM     35  C   UNL     1      -5.712  -2.374  -0.514  1.00  0.00    +0.026 C 
ATOM     36  C   UNL     1      -6.285  -1.108  -2.273  1.00  0.00    +0.334 C 
ATOM     37  C   UNL     1      -7.067  -2.770  -0.936  1.00  0.00    +0.261 C 
ATOM     38  O   UNL     1      -7.351  -1.923  -2.045  1.00  0.00    -0.458 OA
ATOM     39  O   UNL     1      -6.211  -0.275  -3.158  1.00  0.00    -0.247 OA
ENDBRANCH  27  34
ENDBRANCH  14  24
BRANCH   9  40
ATOM     40  O   UNL     1       3.146  -1.160  -1.068  1.00  0.00    -0.392 OA
ATOM     41  H   UNL     1       3.183  -0.189  -1.096  1.00  0.00    +0.210 HD
ENDBRANCH   9  40
BRANCH   7  42
ATOM     42  O   UNL     1       4.298   1.305  -0.074  1.00  0.00    -0.462 OA
BRANCH  42  43
ATOM     43  C   UNL     1       5.449   1.702  -0.689  1.00  0.00    +0.302 C 
ATOM     44  O   UNL     1       6.580   1.513  -0.268  1.00  0.00    -0.253 OA
ATOM     45  C   UNL     1       5.123   2.407  -1.969  1.00  0.00    +0.139 C 
ENDBRANCH  42  43
ENDBRANCH   7  42
TORSDOF 7
