REMARK SMILES CCCOC(=O)c1c(-c2cccc(Cl)c2)nc(CC)c(C(=O)SCCC)c1CC
REMARK SMILES IDX 7 1 8 2 16 3 17 4 20 5 27 6 5 7 6 8 4 9 3 10 2 11 1 12 9 13
REMARK SMILES IDX 10 14 15 15 11 16 13 17 12 18 14 19 28 20 29 21 21 22 22 23
REMARK SMILES IDX 23 24 24 25 25 26 26 27 18 28 19 29
REMARK H PARENT
ROOT
ATOM      1  C   UNL     1      -0.845  -0.099  -0.132  1.00  0.00    +0.090 A 
ATOM      2  C   UNL     1      -0.850   1.277   0.113  1.00  0.00    +0.085 A 
ATOM      3  N   UNL     1       0.267   1.930   0.532  1.00  0.00    -0.251 NA
ATOM      4  C   UNL     1       1.424   1.232   0.684  1.00  0.00    +0.053 A 
ATOM      5  C   UNL     1       1.501  -0.137   0.406  1.00  0.00    +0.054 A 
ATOM      6  C   UNL     1       0.347  -0.841   0.003  1.00  0.00    -0.018 A 
ENDROOT
BRANCH   1   7
ATOM      7  C   UNL     1      -2.100  -0.760  -0.513  1.00  0.00    +0.340 C 
ATOM      8  O   UNL     1      -2.335  -1.187  -1.629  1.00  0.00    -0.246 OA
BRANCH   7   9
ATOM      9  O   UNL     1      -2.894  -0.817   0.581  1.00  0.00    -0.462 OA
BRANCH   9  10
ATOM     10  C   UNL     1      -4.177  -1.410   0.344  1.00  0.00    +0.233 C 
BRANCH  10  11
ATOM     11  C   UNL     1      -4.986  -1.307   1.631  1.00  0.00    +0.038 C 
ATOM     12  C   UNL     1      -6.370  -1.911   1.478  1.00  0.00    +0.007 C 
ENDBRANCH  10  11
ENDBRANCH   9  10
ENDBRANCH   7   9
ENDBRANCH   1   7
BRANCH   2  13
ATOM     13  C   UNL     1      -2.027   2.151  -0.038  1.00  0.00    +0.002 A 
ATOM     14  C   UNL     1      -2.730   2.241  -1.254  1.00  0.00    +0.010 A 
ATOM     15  C   UNL     1      -2.468   2.937   1.040  1.00  0.00    +0.030 A 
ATOM     16  C   UNL     1      -3.850   3.069  -1.379  1.00  0.00    +0.002 A 
ATOM     17  C   UNL     1      -3.585   3.761   0.911  1.00  0.00    +0.041 A 
ATOM     18  C   UNL     1      -4.280   3.828  -0.293  1.00  0.00    +0.020 A 
ATOM     19 Cl   UNL     1      -4.113   4.702   2.253  1.00  0.00    -0.084 Cl
ENDBRANCH   2  13
BRANCH   6  20
ATOM     20  C   UNL     1       0.367  -2.340  -0.212  1.00  0.00    +0.034 C 
ATOM     21  C   UNL     1      -0.023  -3.105   1.045  1.00  0.00    +0.009 C 
ENDBRANCH   6  20
BRANCH   5  22
ATOM     22  C   UNL     1       2.779  -0.843   0.596  1.00  0.00    +0.221 C 
ATOM     23  O   UNL     1       3.049  -1.374   1.662  1.00  0.00    -0.281 OA
BRANCH  22  24
ATOM     24  S   UNL     1       3.840  -0.863  -0.802  1.00  0.00    -0.083 SA
BRANCH  24  25
ATOM     25  C   UNL     1       5.256  -1.750  -0.083  1.00  0.00    +0.078 C 
BRANCH  25  26
ATOM     26  C   UNL     1       6.401  -1.914  -1.082  1.00  0.00    +0.008 C 
ATOM     27  C   UNL     1       7.090  -0.606  -1.448  1.00  0.00    +0.005 C 
ENDBRANCH  25  26
ENDBRANCH  24  25
ENDBRANCH  22  24
ENDBRANCH   5  22
BRANCH   4  28
ATOM     28  C   UNL     1       2.594   2.050   1.173  1.00  0.00    +0.053 C 
ATOM     29  C   UNL     1       3.173   2.924   0.070  1.00  0.00    +0.011 C 
ENDBRANCH   4  28
TORSDOF 11
