REMARK SMILES NS(=O)(=O)c1ccc(CSc2nc3ccccc3n2Cc2ccc(Cl)cc2)cc1
REMARK SMILES IDX 9 1 8 2 5 3 6 4 29 5 7 6 28 7 2 8 3 9 4 10 1 11 10 14 11 15
REMARK SMILES IDX 12 16 19 17 13 18 18 19 14 20 17 21 15 22 16 23 20 24 21 25
REMARK SMILES IDX 22 26 27 27 23 28 26 29 24 30 25 31
REMARK H PARENT 1 12 1 13
ROOT
ATOM      1  C   UNL     1       2.398   2.029   1.162  1.00  0.00    +0.113 C 
ENDROOT
BRANCH   1   2
ATOM      2  C   UNL     1       2.384   1.039   0.020  1.00  0.00    -0.038 A 
ATOM      3  C   UNL     1       2.371  -0.801  -2.089  1.00  0.00    +0.082 A 
ATOM      4  C   UNL     1       2.348  -1.261  -0.771  1.00  0.00    +0.022 A 
ATOM      5  C   UNL     1       2.397   0.567  -2.366  1.00  0.00    +0.022 A 
ATOM      6  C   UNL     1       2.348  -0.341   0.279  1.00  0.00    +0.006 A 
ATOM      7  C   UNL     1       2.399   1.483  -1.312  1.00  0.00    +0.006 A 
BRANCH   3   8
ATOM      8  S   UNL     1       2.442  -1.969  -3.414  1.00  0.00    +0.238 S 
ATOM      9  O   UNL     1       3.201  -3.121  -2.986  1.00  0.00    -0.207 OA
ATOM     10  O   UNL     1       2.722  -1.278  -4.652  1.00  0.00    -0.207 OA
BRANCH   8  11
ATOM     11  N   UNL     1       0.849  -2.485  -3.529  1.00  0.00    -0.225 NA
ATOM     12  H   UNL     1       0.458  -2.179  -4.423  1.00  0.00    +0.137 HD
ATOM     13  H   UNL     1       0.805  -3.492  -3.377  1.00  0.00    +0.137 HD
ENDBRANCH   8  11
ENDBRANCH   3   8
ENDBRANCH   1   2
BRANCH   1  14
ATOM     14  S   UNL     1       0.762   2.745   1.491  1.00  0.00    -0.083 SA
BRANCH  14  15
ATOM     15  C   UNL     1      -0.016   1.400   2.256  1.00  0.00    +0.169 A 
ATOM     16  N   UNL     1       0.550   0.629   3.155  1.00  0.00    -0.222 NA
ATOM     17  N   UNL     1      -1.307   1.020   1.986  1.00  0.00    -0.314 N 
ATOM     18  C   UNL     1      -0.411  -0.285   3.498  1.00  0.00    +0.090 A 
ATOM     19  C   UNL     1      -1.592  -0.068   2.790  1.00  0.00    +0.069 A 
ATOM     20  C   UNL     1      -0.341  -1.341   4.419  1.00  0.00    +0.030 A 
ATOM     21  C   UNL     1      -2.729  -0.868   2.962  1.00  0.00    +0.028 A 
ATOM     22  C   UNL     1      -1.467  -2.152   4.604  1.00  0.00    +0.002 A 
ATOM     23  C   UNL     1      -2.640  -1.916   3.886  1.00  0.00    +0.002 A 
BRANCH  17  24
ATOM     24  C   UNL     1      -2.230   1.645   1.051  1.00  0.00    +0.160 C 
BRANCH  24  25
ATOM     25  C   UNL     1      -1.932   1.282  -0.386  1.00  0.00    -0.028 A 
ATOM     26  C   UNL     1      -1.667   2.291  -1.327  1.00  0.00    +0.007 A 
ATOM     27  C   UNL     1      -1.933  -0.055  -0.814  1.00  0.00    +0.007 A 
ATOM     28  C   UNL     1      -1.393   1.970  -2.658  1.00  0.00    +0.021 A 
ATOM     29  C   UNL     1      -1.660  -0.375  -2.146  1.00  0.00    +0.021 A 
ATOM     30  C   UNL     1      -1.389   0.638  -3.062  1.00  0.00    +0.041 A 
ATOM     31 Cl   UNL     1      -1.047   0.241  -4.701  1.00  0.00    -0.084 Cl
ENDBRANCH  24  25
ENDBRANCH  17  24
ENDBRANCH  14  15
ENDBRANCH   1  14
TORSDOF 7
