REMARK SMILES CC(=O)CC/C=C1\C[C@@H](C=C(C)C)OC1=O
REMARK SMILES IDX 5 1 4 2 2 3 3 4 1 5 6 6 7 7 8 8 15 9 9 10 14 11 16 12 10 13
REMARK SMILES IDX 11 14 12 15 13 16
REMARK H PARENT
ROOT
ATOM      1  C   UNL     1      -2.444   0.936   0.141  1.00  0.00    +0.036 C 
ENDROOT
BRANCH   1   2
ATOM      2  C   UNL     1      -3.672   0.079  -0.158  1.00  0.00    +0.079 C 
BRANCH   2   3
ATOM      3  C   UNL     1      -4.532  -0.130   1.073  1.00  0.00    +0.130 C 
ATOM      4  O   UNL     1      -4.216   0.297   2.183  1.00  0.00    -0.300 OA
ATOM      5  C   UNL     1      -5.806  -0.907   0.872  1.00  0.00    +0.087 C 
ENDBRANCH   2   3
ENDBRANCH   1   2
BRANCH   1   6
ATOM      6  C   UNL     1      -1.603   1.126  -1.090  1.00  0.00    -0.015 C 
ATOM      7  C   UNL     1      -0.325   0.742  -1.231  1.00  0.00    +0.037 C 
ATOM      8  C   UNL     1       0.588   0.080  -0.269  1.00  0.00    +0.092 C 
ATOM      9  C   UNL     1       0.435   0.968  -2.484  1.00  0.00    +0.334 C 
ATOM     10  C   UNL     1       1.934   0.501  -0.828  1.00  0.00    +0.204 C 
ATOM     11  O   UNL     1       1.738   0.665  -2.240  1.00  0.00    -0.454 OA
ATOM     12  O   UNL     1      -0.026   1.331  -3.550  1.00  0.00    -0.247 OA
BRANCH  10  13
ATOM     13  C   UNL     1       3.003  -0.534  -0.618  1.00  0.00    +0.016 C 
ATOM     14  C   UNL     1       3.976  -0.533   0.315  1.00  0.00    -0.077 C 
ATOM     15  C   UNL     1       4.997  -1.639   0.362  1.00  0.00    +0.039 C 
ATOM     16  C   UNL     1       4.151   0.517   1.379  1.00  0.00    +0.039 C 
ENDBRANCH  10  13
ENDBRANCH   1   6
TORSDOF 4
