REMARK SMILES C[NH+]1C[C@@H]2C[C@H]1C[NH+]2c1ccc(-c2ccc3occc3c2)cn1
REMARK SMILES IDX 1 1 2 2 3 3 4 4 5 5 6 6 7 7 8 8 9 11 10 12 23 13 11 14 22 15
REMARK SMILES IDX 12 16 13 17 14 18 21 19 15 20 20 21 16 22 19 23 17 24 18 25
REMARK H PARENT 2 9 8 10
ROOT
ATOM      1  C   UNL     1      -3.516   2.246   0.477  1.00  0.00    +0.333 C 
ATOM      2  N   UNL     1      -4.080   1.155  -0.383  1.00  0.00    -0.325 N 
ATOM      3  C   UNL     1      -3.192   0.687  -1.548  1.00  0.00    +0.328 C 
ATOM      4  C   UNL     1      -3.220  -0.867  -1.397  1.00  0.00    +0.252 C 
ATOM      5  C   UNL     1      -4.664  -1.066  -0.918  1.00  0.00    +0.142 C 
ATOM      6  C   UNL     1      -4.494  -0.159   0.307  1.00  0.00    +0.246 C 
ATOM      7  C   UNL     1      -3.292  -0.849   1.022  1.00  0.00    +0.335 C 
ATOM      8  N   UNL     1      -2.474  -1.372  -0.158  1.00  0.00    -0.274 N 
ATOM      9  H   UNL     1      -4.935   1.568  -0.795  1.00  0.00    +0.348 HD
ATOM     10  H   UNL     1      -2.511  -2.401  -0.139  1.00  0.00    +0.356 HD
ENDROOT
BRANCH   8  11
ATOM     11  C   UNL     1      -1.065  -1.022  -0.116  1.00  0.00    +0.226 A 
ATOM     12  C   UNL     1      -0.113  -1.996  -0.375  1.00  0.00    +0.091 A 
ATOM     13  N   UNL     1      -0.770   0.251   0.177  1.00  0.00    -0.204 NA
ATOM     14  C   UNL     1       1.234  -1.632  -0.318  1.00  0.00    +0.018 A 
ATOM     15  C   UNL     1       0.554   0.571   0.234  1.00  0.00    +0.126 A 
ATOM     16  C   UNL     1       1.601  -0.318  -0.005  1.00  0.00    +0.000 A 
BRANCH  16  17
ATOM     17  C   UNL     1       3.008   0.099   0.069  1.00  0.00    -0.016 A 
ATOM     18  C   UNL     1       3.471   1.201  -0.677  1.00  0.00    +0.012 A 
ATOM     19  C   UNL     1       3.919  -0.601   0.892  1.00  0.00    +0.021 A 
ATOM     20  C   UNL     1       4.805   1.629  -0.627  1.00  0.00    +0.048 A 
ATOM     21  C   UNL     1       5.264  -0.188   0.958  1.00  0.00    +0.021 A 
ATOM     22  C   UNL     1       5.657   0.907   0.201  1.00  0.00    +0.133 A 
ATOM     23  C   UNL     1       6.430  -0.618   1.646  1.00  0.00    +0.050 A 
ATOM     24  O   UNL     1       6.980   1.162   0.387  1.00  0.00    -0.464 OA
ATOM     25  C   UNL     1       7.443   0.233   1.264  1.00  0.00    +0.196 A 
ENDBRANCH  16  17
ENDBRANCH   8  11
TORSDOF 2
