REMARK SMILES Nc1cccc(C[NH+]2C(=O)[NH+](Cc3ccc4[n-]nc(-c5cc[n-]n5)c4c3)[C@H](Cc3ccccc3)[C@H](O)[C@@H](O)[C@H]2Cc2ccccc2)c1
REMARK SMILES IDX 9 1 10 2 8 3 7 5 6 6 2 7 3 8 47 9 4 10 5 11 1 12 39 15 40 17
REMARK SMILES IDX 41 18 42 19 46 20 43 21 45 22 44 23 11 24 12 26 13 27 14 28
REMARK SMILES IDX 26 29 15 30 25 31 16 32 19 33 17 34 18 35 20 36 21 37 24 38
REMARK SMILES IDX 22 39 23 40 27 41 28 42 29 43 30 44 34 45 31 46 33 47 32 48
REMARK SMILES IDX 35 49 36 50 37 52 38 54
REMARK H PARENT 8 4 1 13 1 14 11 25 36 51 38 55
REMARK Flexibility Score:  135.900
ROOT
ATOM      1  C   UNL     1       0.291  -0.275  -1.367  1.00  0.00    +0.512 C 
ATOM      2  O   UNL     1      -0.331  -0.398  -2.406  1.00  0.00    -0.171 OA
ENDROOT
BRANCH   1   3
ATOM      3  N   UNL     1      -0.300  -0.825  -0.179  1.00  0.00    -0.209 N 
ATOM      4  H   UNL     1       0.518  -0.832   0.503  1.00  0.00    +0.362 HD
BRANCH   3   5
ATOM      5  C   UNL     1      -0.553  -2.307  -0.370  1.00  0.00    +0.312 C 
BRANCH   5   6
ATOM      6  C   UNL     1      -1.194  -3.085   0.760  1.00  0.00    +0.009 A 
ATOM      7  C   UNL     1      -1.752  -3.462   3.114  1.00  0.00    +0.032 A 
ATOM      8  C   UNL     1      -2.490  -4.587   2.752  1.00  0.00    +0.025 A 
ATOM      9  C   UNL     1      -1.127  -2.713   2.111  1.00  0.00    +0.035 A 
ATOM     10  C   UNL     1      -2.531  -5.007   1.425  1.00  0.00    +0.003 A 
ATOM     11  C   UNL     1      -1.877  -4.269   0.439  1.00  0.00    +0.010 A 
BRANCH   7  12
ATOM     12  N   UNL     1      -1.751  -3.010   4.426  1.00  0.00    -0.399 N 
ATOM     13  H   UNL     1      -2.077  -3.642   5.148  1.00  0.00    +0.156 HD
ATOM     14  H   UNL     1      -1.052  -2.334   4.707  1.00  0.00    +0.156 HD
ENDBRANCH   7  12
ENDBRANCH   5   6
ENDBRANCH   3   5
BRANCH   3  15
ATOM     15  C   UNL     1      -1.411   0.057   0.341  1.00  0.00    +0.233 CG0
ATOM     16  G   UNL     1      -1.165   1.579   0.036  1.00  0.00    +0.000 G0
BRANCH  15  17
ATOM     17  C   UNL     1      -2.803  -0.382  -0.206  1.00  0.00    +0.104 C 
BRANCH  17  18
ATOM     18  C   UNL     1      -3.960   0.421   0.347  1.00  0.00    -0.042 A 
ATOM     19  C   UNL     1      -4.238   0.415   1.721  1.00  0.00    +0.004 A 
ATOM     20  C   UNL     1      -4.784   1.162  -0.512  1.00  0.00    +0.004 A 
ATOM     21  C   UNL     1      -5.297   1.168   2.229  1.00  0.00    +0.000 A 
ATOM     22  C   UNL     1      -5.842   1.914   0.000  1.00  0.00    +0.000 A 
ATOM     23  C   UNL     1      -6.095   1.921   1.371  1.00  0.00    +0.000 A 
ENDBRANCH  17  18
ENDBRANCH  15  17
ENDBRANCH   3  15
ENDBRANCH   1   3
BRANCH   1  24
ATOM     24  N   UNL     1       1.470   0.563  -1.366  1.00  0.00    -0.209 N 
ATOM     25  H   UNL     1       2.064   0.034  -0.666  1.00  0.00    +0.362 HD
BRANCH  24  26
ATOM     26  C   UNL     1       2.144   0.520  -2.750  1.00  0.00    +0.312 C 
BRANCH  26  27
ATOM     27  C   UNL     1       2.644  -0.861  -3.091  1.00  0.00    +0.007 A 
ATOM     28  C   UNL     1       1.980  -1.712  -4.005  1.00  0.00    +0.008 A 
ATOM     29  C   UNL     1       3.540  -1.395  -2.163  1.00  0.00    +0.018 A 
ATOM     30  C   UNL     1       1.990  -3.116  -3.838  1.00  0.00    -0.014 A 
ATOM     31  C   UNL     1       3.224  -2.699  -1.832  1.00  0.00    -0.013 A 
ATOM     32  C   UNL     1       2.514  -3.590  -2.621  1.00  0.00    -0.113 A 
ATOM     33  C   UNL     1       3.037  -3.236  -0.584  1.00  0.00    +0.072 A 
ATOM     34  N   UNL     1       2.353  -4.758  -1.960  1.00  0.00    -0.574 NA
ATOM     35  N   UNL     1       2.753  -4.549  -0.666  1.00  0.00    -0.365 NA
BRANCH  33  36
ATOM     36  C   UNL     1       2.734  -2.269   0.675  1.00  0.00    +0.064 A 
ATOM     37  C   UNL     1       2.623  -2.645   1.984  1.00  0.00    +0.006 A 
ATOM     38  N   UNL     1       2.338  -0.956   0.503  1.00  0.00    -0.366 NA
ATOM     39  C   UNL     1       2.134  -1.496   2.554  1.00  0.00    -0.122 A 
ATOM     40  N   UNL     1       1.759  -0.572   1.629  1.00  0.00    -0.581 NA
ENDBRANCH  33  36
ENDBRANCH  26  27
ENDBRANCH  24  26
BRANCH  24  41
ATOM     41  C   UNL     1       1.307   1.952  -0.809  1.00  0.00    +0.233 C 
BRANCH  41  42
ATOM     42  C   UNL     1       2.691   2.480  -0.330  1.00  0.00    +0.104 C 
BRANCH  42  43
ATOM     43  C   UNL     1       2.727   3.986  -0.220  1.00  0.00    -0.042 A 
ATOM     44  C   UNL     1       2.596   4.606   1.031  1.00  0.00    +0.004 A 
ATOM     45  C   UNL     1       2.876   4.784  -1.363  1.00  0.00    +0.004 A 
ATOM     46  C   UNL     1       2.604   5.997   1.134  1.00  0.00    +0.000 A 
ATOM     47  C   UNL     1       2.884   6.175  -1.256  1.00  0.00    +0.000 A 
ATOM     48  C   UNL     1       2.746   6.781  -0.009  1.00  0.00    +0.000 A 
ENDBRANCH  42  43
ENDBRANCH  41  42
BRANCH  41  49
ATOM     49  C   UNL     1       0.240   2.117   0.333  1.00  0.00    +0.208 C 
BRANCH  49  50
ATOM     50  O   UNL     1       0.640   1.747   1.641  1.00  0.00    -0.384 OA
ATOM     51  H   UNL     1       1.225   0.937   1.637  1.00  0.00    +0.211 HD
ENDBRANCH  49  50
BRANCH  49  52
ATOM     52  C   UNL     1      -1.165   1.579   0.036  1.00  0.00    +0.208 CG0
ATOM     53  G   UNL     1      -1.411   0.057   0.341  1.00  0.00    +0.000 G0
BRANCH  52  54
ATOM     54  O   UNL     1      -1.478   1.907  -1.322  1.00  0.00    -0.384 OA
ATOM     55  H   UNL     1      -2.357   2.339  -1.324  1.00  0.00    +0.211 HD
ENDBRANCH  52  54
ENDBRANCH  49  52
ENDBRANCH  41  49
ENDBRANCH  24  41
ENDBRANCH   1  24
TORSDOF 12
