REMARK SMILES C=C1[C@@H]2C[C@]3(O)[C@H]4O[C@]45C=CC(=O)OC(C)(C)[C@@H]5[C@H](O)C[C@H]3[C@]2(C)CC[C@@]1(O)[C@@H](C)[C@H]1CC=C(C)C(=O)O1
REMARK SMILES IDX 1 1 2 2 3 3 4 4 5 5 22 6 23 7 24 8 25 9 26 10 27 11 28 12
REMARK SMILES IDX 29 14 30 15 31 16 32 17 38 18 33 19 36 20 34 21 37 22 35 23
REMARK SMILES IDX 6 24 7 26 8 27 9 28 10 29 11 30 18 32 15 34 16 35 17 36
REMARK SMILES IDX 14 37 12 38 13 39 21 41 19 42 20 44
REMARK H PARENT 28 13 6 25 20 45
REMARK Flexibility Score:   55.800
ROOT
ATOM      1  C   UNL     1       0.757   2.381  -0.520  1.00  0.00    +0.011 C 
ATOM      2  C   UNL     1       1.249   1.147  -0.745  1.00  0.00    -0.042 C 
ATOM      3  C   UNL     1       0.546   0.076  -1.575  1.00  0.00    +0.027 C 
ATOM      4  C   UNL     1      -0.723   0.471  -2.363  1.00  0.00    +0.047 C 
ATOM      5  C   UNL     1      -1.939  -0.007  -1.541  1.00  0.00    +0.098 C 
ATOM      6  C   UNL     1      -1.357  -0.614  -0.250  1.00  0.00    +0.033 C 
ATOM      7  C   UNL     1       0.074  -1.084  -0.647  1.00  0.00    -0.020 C 
ATOM      8  C   UNL     1       0.091  -2.416  -1.430  1.00  0.00    +0.012 C 
ATOM      9  C   UNL     1       0.976  -1.236   0.607  1.00  0.00    +0.011 C 
ATOM     10  C   UNL     1       2.423  -0.846   0.290  1.00  0.00    +0.041 C 
ATOM     11  C   UNL     1       2.559   0.656  -0.086  1.00  0.00    +0.092 C 
ENDROOT
BRANCH  11  12
ATOM     12  O   UNL     1       2.702   1.372   1.148  1.00  0.00    -0.385 OA
ATOM     13  H   UNL     1       3.609   1.226   1.478  1.00  0.00    +0.211 HD
ENDBRANCH  11  12
BRANCH  11  14
ATOM     14  C   UNL     1       3.820   0.910  -1.000  1.00  0.00    +0.063 C 
ATOM     15  C   UNL     1       4.037   2.414  -1.257  1.00  0.00    +0.015 C 
BRANCH  14  16
ATOM     16  C   UNL     1       5.112   0.252  -0.428  1.00  0.00    +0.186 C 
ATOM     17  C   UNL     1       6.353   0.424  -1.307  1.00  0.00    +0.073 C 
ATOM     18  O   UNL     1       5.370   0.764   0.896  1.00  0.00    -0.458 OA
ATOM     19  C   UNL     1       7.523  -0.182  -0.600  1.00  0.00    -0.012 C 
ATOM     20  C   UNL     1       6.478   0.340   1.562  1.00  0.00    +0.333 C 
ATOM     21  C   UNL     1       7.570  -0.251   0.741  1.00  0.00    +0.030 C 
ATOM     22  O   UNL     1       6.575   0.463   2.776  1.00  0.00    -0.247 OA
ATOM     23  C   UNL     1       8.720  -0.841   1.496  1.00  0.00    +0.052 C 
ENDBRANCH  14  16
ENDBRANCH  11  14
BRANCH   5  24
ATOM     24  O   UNL     1      -2.599  -1.014  -2.315  1.00  0.00    -0.387 OA
ATOM     25  H   UNL     1      -3.267  -0.547  -2.854  1.00  0.00    +0.211 HD
ENDBRANCH   5  24
BRANCH   5  26
ATOM     26  C   UNL     1      -2.897   1.102  -1.215  1.00  0.00    +0.188 C 
ATOM     27  O   UNL     1      -4.181   0.998  -1.830  1.00  0.00    -0.358 OA
ATOM     28  C   UNL     1      -4.159   0.873  -0.385  1.00  0.00    +0.125 C 
BRANCH  28  29
ATOM     29  C   UNL     1      -4.613   2.011   0.432  1.00  0.00    +0.019 C 
ATOM     30  C   UNL     1      -5.889   2.384   0.587  1.00  0.00    +0.092 CG0
ATOM     31  G   UNL     1      -7.007   1.660  -0.032  1.00  0.00    +0.000 G0
ENDBRANCH  28  29
BRANCH  28  32
ATOM     32  C   UNL     1      -4.568  -0.529   0.074  1.00  0.00    +0.100 CG1
ATOM     33  G   UNL     1      -3.538  -1.167   1.045  1.00  0.00    +0.000 G1
BRANCH  32  34
ATOM     34  C   UNL     1      -6.041  -0.565   0.626  1.00  0.00    +0.115 C 
ATOM     35  C   UNL     1      -6.629  -1.969   0.338  1.00  0.00    +0.057 C 
ATOM     36  C   UNL     1      -6.227  -0.328   2.138  1.00  0.00    +0.057 C 
BRANCH  34  37
ATOM     37  O   UNL     1      -6.927   0.314  -0.142  1.00  0.00    -0.456 OA
BRANCH  37  38
ATOM     38  C   UNL     1      -7.007   1.660  -0.032  1.00  0.00    +0.331 CG0
ATOM     39  O   UNL     1      -7.996   2.281  -0.406  1.00  0.00    -0.247 OA
ATOM     40  G   UNL     1      -5.889   2.384   0.587  1.00  0.00    +0.000 G0
ENDBRANCH  37  38
ENDBRANCH  34  37
ENDBRANCH  32  34
ENDBRANCH  28  32
ENDBRANCH   5  26
BRANCH   6  41
ATOM     41  C   UNL     1      -2.240  -1.688   0.401  1.00  0.00    +0.039 C 
BRANCH  41  42
ATOM     42  C   UNL     1      -3.538  -1.167   1.045  1.00  0.00    +0.125 CG1
ATOM     43  G   UNL     1      -4.568  -0.529   0.074  1.00  0.00    +0.000 G1
BRANCH  42  44
ATOM     44  O   UNL     1      -3.217  -0.258   2.099  1.00  0.00    -0.393 OA
ATOM     45  H   UNL     1      -2.576  -0.697   2.688  1.00  0.00    +0.210 HD
ENDBRANCH  42  44
ENDBRANCH  41  42
ENDBRANCH   6  41
TORSDOF 5
