REMARK SMILES CCCCCOc1nc(N)nc2ncc(C#Cc3ccccc3)nc12
REMARK SMILES IDX 5 1 4 2 3 3 2 4 1 5 6 6 7 7 8 8 25 9 9 10 24 11 12 12 11 13
REMARK SMILES IDX 15 14 13 15 14 16 16 17 10 18 17 21 18 22 19 23 23 24 20 25
REMARK SMILES IDX 22 26 21 27
REMARK H PARENT 10 19 10 20
ROOT
ATOM      1  C   UNL     1      -3.528  -1.066   0.069  1.00  0.00    +0.231 C 
ENDROOT
BRANCH   1   2
ATOM      2  C   UNL     1      -3.970   0.322  -0.398  1.00  0.00    +0.042 C 
BRANCH   2   3
ATOM      3  C   UNL     1      -3.292   0.736  -1.708  1.00  0.00    +0.003 C 
BRANCH   3   4
ATOM      4  C   UNL     1      -3.775   2.110  -2.171  1.00  0.00    -0.003 C 
ATOM      5  C   UNL     1      -3.105   2.526  -3.471  1.00  0.00    +0.004 C 
ENDBRANCH   3   4
ENDBRANCH   2   3
ENDBRANCH   1   2
BRANCH   1   6
ATOM      6  O   UNL     1      -2.130  -1.031   0.354  1.00  0.00    -0.476 OA
BRANCH   6   7
ATOM      7  C   UNL     1      -1.604  -2.245   0.774  1.00  0.00    +0.247 A 
ATOM      8  N   UNL     1      -2.441  -3.294   0.906  1.00  0.00    -0.175 NA
ATOM      9  C   UNL     1      -0.242  -2.271   1.029  1.00  0.00    +0.171 A 
ATOM     10  C   UNL     1      -1.888  -4.429   1.313  1.00  0.00    +0.225 A 
ATOM     11  N   UNL     1       0.600  -1.198   0.891  1.00  0.00    -0.229 NA
ATOM     12  C   UNL     1       0.202  -3.533   1.450  1.00  0.00    +0.187 A 
ATOM     13  N   UNL     1      -0.599  -4.584   1.589  1.00  0.00    -0.191 NA
ATOM     14  C   UNL     1       1.893  -1.419   1.185  1.00  0.00    +0.132 A 
ATOM     15  N   UNL     1       1.498  -3.715   1.735  1.00  0.00    -0.232 NA
ATOM     16  C   UNL     1       2.334  -2.657   1.600  1.00  0.00    +0.151 A 
ATOM     17  C   UNL     1       2.765  -0.303   1.041  1.00  0.00    -0.040 C 
BRANCH  10  18
ATOM     18  N   UNL     1      -2.702  -5.512   1.458  1.00  0.00    -0.368 N 
ATOM     19  H   UNL     1      -3.680  -5.411   1.255  1.00  0.00    +0.159 HD
ATOM     20  H   UNL     1      -2.288  -6.375   1.768  1.00  0.00    +0.159 HD
ENDBRANCH  10  18
BRANCH  17  21
ATOM     21  C   UNL     1       3.497   0.641   0.917  1.00  0.00    -0.060 C 
ATOM     22  C   UNL     1       4.357   1.774   0.764  1.00  0.00    +0.025 A 
ATOM     23  C   UNL     1       5.715   1.670   1.072  1.00  0.00    +0.017 A 
ATOM     24  C   UNL     1       3.837   2.987   0.306  1.00  0.00    +0.017 A 
ATOM     25  C   UNL     1       6.552   2.778   0.922  1.00  0.00    +0.001 A 
ATOM     26  C   UNL     1       4.675   4.094   0.156  1.00  0.00    +0.001 A 
ATOM     27  C   UNL     1       6.032   3.989   0.464  1.00  0.00    +0.000 A 
ENDBRANCH  17  21
ENDBRANCH   6   7
ENDBRANCH   1   6
TORSDOF 7
