REMARK SMILES Cc1cn(-c2cc(NC(=O)c3ccc(C)c(Nc4nc5ccccc5n4-c4cc(N)ncn4)c3)cc(C(F)(F)F)c2)cn1
REMARK SMILES IDX 11 1 12 2 13 3 14 4 15 5 16 6 34 7 9 8 8 9 10 10 7 12 5 13
REMARK SMILES IDX 6 14 41 15 36 16 35 17 4 18 2 19 3 20 43 21 42 22 1 23 37 24
REMARK SMILES IDX 38 25 39 26 40 27 17 28 18 30 19 31 26 32 20 33 25 34 21 35
REMARK SMILES IDX 24 36 22 37 23 38 27 39 28 40 33 41 29 42 32 43 31 44 30 45
REMARK H PARENT 8 11 17 29 30 46 30 47
ROOT
ATOM      1  C   UNL     1       0.567   2.685  -2.101  1.00  0.00    +0.042 A 
ATOM      2  C   UNL     1       0.319   3.459  -3.233  1.00  0.00    +0.014 A 
ATOM      3  C   UNL     1      -0.966   3.502  -3.773  1.00  0.00    +0.006 A 
ATOM      4  C   UNL     1      -2.017   2.767  -3.194  1.00  0.00    -0.027 A 
ATOM      5  C   UNL     1      -3.375   2.826  -3.843  1.00  0.00    +0.046 C 
ATOM      6  C   UNL     1      -1.784   2.000  -2.028  1.00  0.00    +0.045 A 
ATOM      7  C   UNL     1      -0.487   1.990  -1.494  1.00  0.00    +0.040 A 
ENDROOT
BRANCH   1   8
ATOM      8  C   UNL     1       1.954   2.619  -1.558  1.00  0.00    +0.255 C 
ATOM      9  N   UNL     1       2.284   1.417  -0.954  1.00  0.00    -0.322 N 
ATOM     10  O   UNL     1       2.690   3.587  -1.708  1.00  0.00    -0.269 OA
ATOM     11  H   UNL     1       1.590   0.680  -1.006  1.00  0.00    +0.170 HD
BRANCH   9  12
ATOM     12  C   UNL     1       3.487   1.080  -0.300  1.00  0.00    +0.044 A 
ATOM     13  C   UNL     1       4.734  -0.648   0.899  1.00  0.00    +0.049 A 
ATOM     14  C   UNL     1       3.581  -0.219   0.222  1.00  0.00    +0.052 A 
ATOM     15  C   UNL     1       5.803   0.247   1.047  1.00  0.00    +0.039 A 
ATOM     16  C   UNL     1       5.720   1.555   0.536  1.00  0.00    +0.060 A 
ATOM     17  C   UNL     1       4.557   1.958  -0.139  1.00  0.00    +0.039 A 
BRANCH  13  18
ATOM     18  N   UNL     1       4.815  -1.969   1.432  1.00  0.00    -0.306 N 
ATOM     19  C   UNL     1       5.481  -3.816   2.449  1.00  0.00    +0.056 A 
ATOM     20  C   UNL     1       5.862  -2.529   2.134  1.00  0.00    +0.116 A 
ATOM     21  N   UNL     1       4.229  -4.071   1.963  1.00  0.00    -0.242 NA
ATOM     22  C   UNL     1       3.859  -2.962   1.362  1.00  0.00    +0.204 A 
ATOM     23  C   UNL     1       6.226  -4.854   3.195  1.00  0.00    +0.068 C 
ENDBRANCH  13  18
BRANCH  16  24
ATOM     24  C   UNL     1       6.875   2.517   0.679  1.00  0.00    +0.416 C 
ATOM     25  F   UNL     1       7.589   2.647  -0.472  1.00  0.00    -0.166 F 
ATOM     26  F   UNL     1       6.485   3.773   1.028  1.00  0.00    -0.166 F 
ATOM     27  F   UNL     1       7.774   2.133   1.631  1.00  0.00    -0.166 F 
ENDBRANCH  16  24
ENDBRANCH   9  12
ENDBRANCH   1   8
BRANCH   6  28
ATOM     28  N   UNL     1      -2.821   1.225  -1.468  1.00  0.00    -0.325 N 
ATOM     29  H   UNL     1      -3.760   1.489  -1.766  1.00  0.00    +0.170 HD
BRANCH  28  30
ATOM     30  C   UNL     1      -2.727   0.172  -0.612  1.00  0.00    +0.214 A 
ATOM     31  N   UNL     1      -1.635  -0.407  -0.158  1.00  0.00    -0.212 NA
ATOM     32  N   UNL     1      -3.876  -0.426  -0.067  1.00  0.00    -0.262 N 
ATOM     33  C   UNL     1      -2.048  -1.454   0.611  1.00  0.00    +0.091 A 
ATOM     34  C   UNL     1      -3.439  -1.538   0.654  1.00  0.00    +0.076 A 
ATOM     35  C   UNL     1      -1.262  -2.403   1.282  1.00  0.00    +0.031 A 
ATOM     36  C   UNL     1      -4.076  -2.621   1.289  1.00  0.00    +0.029 A 
ATOM     37  C   UNL     1      -1.890  -3.452   1.957  1.00  0.00    +0.002 A 
ATOM     38  C   UNL     1      -3.277  -3.564   1.947  1.00  0.00    +0.002 A 
BRANCH  32  39
ATOM     39  C   UNL     1      -5.217   0.056  -0.242  1.00  0.00    +0.145 A 
ATOM     40  C   UNL     1      -6.208  -0.274   0.662  1.00  0.00    +0.094 A 
ATOM     41  N   UNL     1      -5.460   0.878  -1.294  1.00  0.00    -0.218 NA
ATOM     42  C   UNL     1      -7.467   0.233   0.423  1.00  0.00    +0.128 A 
ATOM     43  C   UNL     1      -6.727   1.289  -1.444  1.00  0.00    +0.226 A 
ATOM     44  N   UNL     1      -7.750   0.992  -0.638  1.00  0.00    -0.220 NA
BRANCH  42  45
ATOM     45  N   UNL     1      -8.522  -0.076   1.256  1.00  0.00    -0.384 N 
ATOM     46  H   UNL     1      -9.400   0.333   0.958  1.00  0.00    +0.158 HD
ATOM     47  H   UNL     1      -8.362  -0.137   2.251  1.00  0.00    +0.158 HD
ENDBRANCH  42  45
ENDBRANCH  32  39
ENDBRANCH  28  30
ENDBRANCH   6  28
TORSDOF 8
