REMARK SMILES CC(C)(CC(=O)[NH+]1CCC[C@H]1CO)[NH2+]CC(=O)[NH+]1C[C@@H](F)C[C@H]1C#N
REMARK SMILES IDX 1 1 2 2 3 3 4 4 5 5 6 6 7 7 8 8 11 9 9 10 10 11 12 13 13 14
REMARK SMILES IDX 14 16 15 19 16 20 17 21 18 22 19 23 23 24 20 25 22 26 24 27
REMARK SMILES IDX 25 28 21 30
REMARK H PARENT 7 12 13 15 14 17 14 18 18 29
ROOT
ATOM      1  C   UNL     1      -0.658   0.883   2.265  1.00  0.00    +0.079 C 
ATOM      2  C   UNL     1      -0.134  -0.206   1.316  1.00  0.00    +0.104 C 
ATOM      3  C   UNL     1       0.622  -1.276   2.113  1.00  0.00    +0.079 C 
ENDROOT
BRANCH   2   4
ATOM      4  C   UNL     1      -1.312  -0.907   0.570  1.00  0.00    +0.212 C 
BRANCH   4   5
ATOM      5  C   UNL     1      -2.166   0.031  -0.247  1.00  0.00    +0.318 C 
ATOM      6  O   UNL     1      -1.708   1.062  -0.721  1.00  0.00    -0.231 OA
BRANCH   5   7
ATOM      7  N   UNL     1      -3.544  -0.279  -0.587  1.00  0.00    -0.267 N 
ATOM      8  C   UNL     1      -3.779  -0.788  -1.981  1.00  0.00    +0.270 C 
ATOM      9  C   UNL     1      -4.550   0.838  -0.316  1.00  0.00    +0.217 C 
ATOM     10  C   UNL     1      -4.973   0.000  -2.494  1.00  0.00    +0.068 C 
ATOM     11  C   UNL     1      -5.697   0.446  -1.238  1.00  0.00    +0.074 C 
ATOM     12  H   UNL     1      -3.861  -1.005   0.085  1.00  0.00    +0.357 HD
BRANCH   9  13
ATOM     13  C   UNL     1      -4.916   0.798   1.173  1.00  0.00    +0.221 C 
BRANCH  13  14
ATOM     14  O   UNL     1      -4.674  -0.541   1.642  1.00  0.00    -0.390 OA
ATOM     15  H   UNL     1      -5.213  -0.647   2.459  1.00  0.00    +0.210 HD
ENDBRANCH  13  14
ENDBRANCH   9  13
ENDBRANCH   5   7
ENDBRANCH   4   5
ENDBRANCH   2   4
BRANCH   2  16
ATOM     16  N   UNL     1       0.824   0.439   0.305  1.00  0.00    -0.330 N 
ATOM     17  H   UNL     1       0.286   1.163  -0.214  1.00  0.00    +0.347 HD
ATOM     18  H   UNL     1       1.060  -0.245  -0.447  1.00  0.00    +0.347 HD
BRANCH  16  19
ATOM     19  C   UNL     1       2.148   1.094   0.772  1.00  0.00    +0.408 C 
BRANCH  19  20
ATOM     20  C   UNL     1       3.408   0.193   0.605  1.00  0.00    +0.367 C 
ATOM     21  O   UNL     1       3.397  -0.972   0.963  1.00  0.00    -0.224 OA
BRANCH  20  22
ATOM     22  N   UNL     1       4.666   0.626  -0.101  1.00  0.00    -0.250 N 
ATOM     23  C   UNL     1       5.865  -0.289   0.233  1.00  0.00    +0.309 C 
ATOM     24  C   UNL     1       4.568   0.588  -1.661  1.00  0.00    +0.299 C 
ATOM     25  C   UNL     1       5.957  -1.220  -0.966  1.00  0.00    +0.229 C 
ATOM     26  C   UNL     1       5.726  -0.286  -2.129  1.00  0.00    +0.126 C 
ATOM     27  C   UNL     1       3.237   0.111  -2.096  1.00  0.00    +0.127 C 
ATOM     28  N   UNL     1       2.109  -0.166  -2.142  1.00  0.00    -0.192 NA
ATOM     29  H   UNL     1       4.907   1.569   0.227  1.00  0.00    +0.358 HD
ATOM     30  F   UNL     1       4.913  -2.089  -0.936  1.00  0.00    -0.241 F 
ENDBRANCH  20  22
ENDBRANCH  19  20
ENDBRANCH  16  19
ENDBRANCH   2  16
TORSDOF 9
