REMARK SMILES O=C1CCC(c2ccc(OCC(=O)[NH+]3CCCC3)cc2)=N[N-]1
REMARK SMILES IDX 11 1 10 2 9 3 6 4 7 5 20 6 8 7 19 8 5 9 1 10 2 11 3 12 22 13
REMARK SMILES IDX 4 14 21 15 12 16 13 17 14 18 15 19 18 20 16 21 17 22
REMARK H PARENT 14 23
ROOT
ATOM      1  C   UNL     1      -2.001  -1.983  -0.912  1.00  0.00    +0.374 C 
ENDROOT
BRANCH   1   2
ATOM      2  O   UNL     1      -2.185  -3.031   0.064  1.00  0.00    -0.479 OA
BRANCH   2   3
ATOM      3  C   UNL     1      -1.078  -3.019   0.888  1.00  0.00    +0.120 A 
ATOM      4  C   UNL     1       1.150  -1.734   1.685  1.00  0.00    -0.006 A 
ATOM      5  C   UNL     1       1.284  -2.779   0.763  1.00  0.00    +0.014 A 
ATOM      6  C   UNL     1      -0.017  -1.563   2.440  1.00  0.00    +0.014 A 
ATOM      7  C   UNL     1       0.141  -3.451   0.363  1.00  0.00    +0.047 A 
ATOM      8  C   UNL     1      -1.160  -2.237   2.040  1.00  0.00    +0.047 A 
BRANCH   4   9
ATOM      9  C   UNL     1       1.744  -0.463   1.228  1.00  0.00    +0.026 C 
ATOM     10  O   UNL     1       1.514   3.320   0.627  1.00  0.00    -0.319 OA
ATOM     11  C   UNL     1       1.903   2.158   0.727  1.00  0.00    +0.068 C 
ATOM     12  C   UNL     1       2.586   1.670   1.997  1.00  0.00    +0.062 C 
ATOM     13  N   UNL     1       1.795   1.229  -0.234  1.00  0.00    -0.544 NA
ATOM     14  C   UNL     1       2.850   0.173   2.010  1.00  0.00    +0.061 C 
ATOM     15  N   UNL     1       1.224   0.070   0.151  1.00  0.00    -0.369 NA
ENDBRANCH   4   9
ENDBRANCH   2   3
ENDBRANCH   1   2
BRANCH   1  16
ATOM     16  C   UNL     1      -1.956  -0.508  -0.427  1.00  0.00    +0.349 C 
ATOM     17  O   UNL     1      -2.735  -0.079   0.417  1.00  0.00    -0.227 OA
BRANCH  16  18
ATOM     18  N   UNL     1      -1.048   0.498  -1.000  1.00  0.00    -0.269 N 
ATOM     19  C   UNL     1      -1.396   1.925  -0.672  1.00  0.00    +0.270 C 
ATOM     20  C   UNL     1      -0.732   0.422  -2.449  1.00  0.00    +0.270 C 
ATOM     21  C   UNL     1      -0.842   2.726  -1.835  1.00  0.00    +0.068 C 
ATOM     22  C   UNL     1      -1.059   1.796  -3.008  1.00  0.00    +0.068 C 
ATOM     23  H   UNL     1      -0.113   0.349  -0.494  1.00  0.00    +0.356 HD
ENDBRANCH  16  18
ENDBRANCH   1  16
TORSDOF 5
