REMARK SMILES COc1ccccc1N1CC[NH+](CCNC(=O)c2ccncc2)CC1
REMARK SMILES IDX 9 1 10 2 11 3 12 4 24 5 25 6 8 8 3 9 4 10 5 11 7 12 6 13
REMARK SMILES IDX 2 14 1 15 13 16 14 17 15 18 16 19 17 20 18 22 19 23 23 24
REMARK SMILES IDX 20 25 22 26 21 27
REMARK H PARENT 12 7 15 21
ROOT
ATOM      1  N   UNL     1      -1.821  -1.014   0.109  1.00  0.00    -0.357 N 
ATOM      2  C   UNL     1      -0.860  -0.829   1.199  1.00  0.00    +0.178 C 
ATOM      3  C   UNL     1      -0.333   0.620   1.225  1.00  0.00    +0.284 C 
ATOM      4  N   UNL     1       0.195   1.026  -0.150  1.00  0.00    -0.331 N 
ATOM      5  C   UNL     1      -0.871   0.824  -1.225  1.00  0.00    +0.284 C 
ATOM      6  C   UNL     1      -1.370  -0.637  -1.234  1.00  0.00    +0.178 C 
ATOM      7  H   UNL     1       0.947   0.341  -0.376  1.00  0.00    +0.348 HD
ENDROOT
BRANCH   1   8
ATOM      8  C   UNL     1      -3.165  -1.274   0.342  1.00  0.00    +0.080 A 
ATOM      9  C   UNL     1      -3.928  -0.654   1.363  1.00  0.00    +0.142 A 
ATOM     10  C   UNL     1      -5.282  -0.987   1.531  1.00  0.00    +0.048 A 
ATOM     11  C   UNL     1      -5.894  -1.928   0.703  1.00  0.00    +0.004 A 
ATOM     12  C   UNL     1      -3.817  -2.217  -0.477  1.00  0.00    +0.030 A 
ATOM     13  C   UNL     1      -5.162  -2.544  -0.301  1.00  0.00    +0.002 A 
BRANCH   9  14
ATOM     14  O   UNL     1      -3.293   0.309   2.117  1.00  0.00    -0.495 OA
ATOM     15  C   UNL     1      -3.991   0.810   3.253  1.00  0.00    +0.278 C 
ENDBRANCH   9  14
ENDBRANCH   1   8
BRANCH   4  16
ATOM     16  C   UNL     1       0.827   2.393  -0.156  1.00  0.00    +0.283 C 
BRANCH  16  17
ATOM     17  C   UNL     1       1.897   2.546  -1.260  1.00  0.00    +0.177 C 
BRANCH  17  18
ATOM     18  N   UNL     1       3.160   1.856  -1.007  1.00  0.00    -0.346 N 
ATOM     19  C   UNL     1       3.272   0.486  -0.912  1.00  0.00    +0.251 C 
ATOM     20  O   UNL     1       2.281  -0.241  -0.923  1.00  0.00    -0.269 OA
ATOM     21  H   UNL     1       4.008   2.402  -1.111  1.00  0.00    +0.164 HD
BRANCH  19  22
ATOM     22  C   UNL     1       4.637  -0.089  -0.794  1.00  0.00    +0.042 A 
ATOM     23  C   UNL     1       5.702   0.625  -0.244  1.00  0.00    +0.034 A 
ATOM     24  C   UNL     1       4.834  -1.403  -1.224  1.00  0.00    +0.034 A 
ATOM     25  C   UNL     1       6.931  -0.007  -0.168  1.00  0.00    +0.112 A 
ATOM     26  C   UNL     1       6.100  -1.942  -1.107  1.00  0.00    +0.112 A 
ATOM     27  N   UNL     1       7.149  -1.269  -0.592  1.00  0.00    -0.265 NA
ENDBRANCH  19  22
ENDBRANCH  17  18
ENDBRANCH  16  17
ENDBRANCH   4  16
TORSDOF 6
