REMARK SMILES Cc1ncc([N+](=O)[O-])n1CC[n+]1ccccc1
REMARK SMILES IDX 1 1 2 2 3 3 4 4 5 5 9 6 10 7 11 8 12 9 13 10 17 11 14 12
REMARK SMILES IDX 16 13 15 14 6 15 7 16 8 17
REMARK H PARENT
ROOT
ATOM      1  C   UNL     1      -2.309   0.193  -2.664  1.00  0.00    +0.117 C 
ATOM      2  C   UNL     1      -2.725   0.394  -1.250  1.00  0.00    +0.193 A 
ATOM      3  N   UNL     1      -3.905   0.845  -0.876  1.00  0.00    -0.213 NA
ATOM      4  C   UNL     1      -3.910   0.850   0.493  1.00  0.00    +0.218 A 
ATOM      5  C   UNL     1      -2.695   0.425   0.961  1.00  0.00    +0.343 A 
ATOM      6  N   UNL     1      -1.935   0.125  -0.146  1.00  0.00    -0.204 N 
ENDROOT
BRANCH   6   7
ATOM      7  C   UNL     1      -0.585  -0.410  -0.193  1.00  0.00    +0.317 C 
BRANCH   7   8
ATOM      8  C   UNL     1       0.477   0.685  -0.114  1.00  0.00    +0.403 C 
BRANCH   8   9
ATOM      9  N   UNL     1       1.806   0.079   0.146  1.00  0.00    -0.201 N 
ATOM     10  C   UNL     1       2.600  -0.281  -0.892  1.00  0.00    +0.308 A 
ATOM     11  C   UNL     1       2.223  -0.093   1.425  1.00  0.00    +0.308 A 
ATOM     12  C   UNL     1       3.849  -0.847  -0.665  1.00  0.00    +0.071 A 
ATOM     13  C   UNL     1       3.465  -0.657   1.694  1.00  0.00    +0.071 A 
ATOM     14  C   UNL     1       4.284  -1.039   0.640  1.00  0.00    +0.012 A 
ENDBRANCH   8   9
ENDBRANCH   7   8
ENDBRANCH   6   7
BRANCH   5  15
ATOM     15  N   UNL     1      -2.266   0.320   2.311  1.00  0.00    -0.026 N 
ATOM     16  O   UNL     1      -1.043   0.239   2.499  1.00  0.00    -0.358 OA
ATOM     17  O   UNL     1      -3.135   0.339   3.183  1.00  0.00    -0.358 OA
ENDBRANCH   5  15
TORSDOF 4
