REMARK SMILES O=C(c1ccn2c1CS[C@@H]2c1cccnc1)c1cn(C(=O)c2ccccc2S(=O)(=O)[O-])c2cc(-c3ccc(F)cc3)ccc12
REMARK SMILES IDX 17 1 18 2 19 3 32 4 33 5 34 6 42 7 43 8 44 9 2 10 1 11 3 12
REMARK SMILES IDX 4 13 7 14 5 15 6 16 8 17 10 18 9 19 11 20 12 21 16 22 13 23
REMARK SMILES IDX 15 24 14 25 20 26 21 27 22 28 23 29 27 30 24 31 26 32 25 33
REMARK SMILES IDX 28 34 29 35 30 36 31 37 35 38 36 39 41 40 37 41 40 42 38 43
REMARK SMILES IDX 39 44
REMARK H PARENT
ROOT
ATOM      1  C   UNL     1       0.100   0.690   0.647  1.00  0.00    +0.049 A 
ATOM      2  C   UNL     1      -0.754  -0.396   0.580  1.00  0.00    +0.108 A 
ATOM      3  N   UNL     1      -2.074   0.031   0.524  1.00  0.00    -0.282 N 
ATOM      4  C   UNL     1      -2.063   1.428   0.496  1.00  0.00    +0.057 A 
ATOM      5  C   UNL     1      -3.121   2.357   0.389  1.00  0.00    +0.036 A 
ATOM      6  C   UNL     1      -2.853   3.738   0.415  1.00  0.00    -0.016 A 
ATOM      7  C   UNL     1      -1.525   4.157   0.544  1.00  0.00    +0.009 A 
ATOM      8  C   UNL     1      -0.472   3.238   0.633  1.00  0.00    +0.012 A 
ATOM      9  C   UNL     1      -0.736   1.851   0.601  1.00  0.00    +0.011 A 
ENDROOT
BRANCH   1  10
ATOM     10  C   UNL     1       1.557   0.681   0.808  1.00  0.00    +0.197 C 
ATOM     11  O   UNL     1       2.139   1.609   1.369  1.00  0.00    -0.288 OA
BRANCH  10  12
ATOM     12  C   UNL     1       2.320  -0.471   0.316  1.00  0.00    +0.044 A 
ATOM     13  C   UNL     1       2.024  -1.421  -0.715  1.00  0.00    +0.032 A 
ATOM     14  C   UNL     1       3.580  -0.824   0.776  1.00  0.00    +0.040 A 
ATOM     15  C   UNL     1       3.073  -2.316  -0.813  1.00  0.00    +0.088 A 
ATOM     16  N   UNL     1       4.009  -1.922   0.083  1.00  0.00    -0.333 N 
ATOM     17  C   UNL     1       4.506  -0.298   1.804  1.00  0.00    +0.126 C 
ATOM     18  C   UNL     1       5.308  -2.485   0.429  1.00  0.00    +0.177 C 
ATOM     19  S   UNL     1       5.912  -1.478   1.849  1.00  0.00    -0.125 SA
BRANCH  18  20
ATOM     20  C   UNL     1       6.289  -2.470  -0.715  1.00  0.00    +0.003 A 
ATOM     21  C   UNL     1       6.412  -1.407  -1.619  1.00  0.00    +0.010 A 
ATOM     22  C   UNL     1       7.160  -3.544  -0.888  1.00  0.00    +0.117 A 
ATOM     23  C   UNL     1       7.354  -1.468  -2.642  1.00  0.00    +0.020 A 
ATOM     24  N   UNL     1       8.087  -3.630  -1.870  1.00  0.00    -0.264 NA
ATOM     25  C   UNL     1       8.158  -2.590  -2.727  1.00  0.00    +0.111 A 
ENDBRANCH  18  20
ENDBRANCH  10  12
ENDBRANCH   1  10
BRANCH   3  26
ATOM     26  C   UNL     1      -3.215  -0.807   0.627  1.00  0.00    +0.263 C 
ATOM     27  O   UNL     1      -4.291  -0.291   0.939  1.00  0.00    -0.268 OA
BRANCH  26  28
ATOM     28  C   UNL     1      -3.171  -2.285   0.611  1.00  0.00    +0.058 A 
ATOM     29  C   UNL     1      -3.498  -2.923   1.822  1.00  0.00    +0.015 A 
ATOM     30  C   UNL     1      -2.846  -3.063  -0.500  1.00  0.00    +0.067 A 
ATOM     31  C   UNL     1      -3.475  -4.316   1.922  1.00  0.00    +0.001 A 
ATOM     32  C   UNL     1      -2.828  -4.464  -0.397  1.00  0.00    +0.020 A 
ATOM     33  C   UNL     1      -3.135  -5.087   0.813  1.00  0.00    +0.001 A 
BRANCH  30  34
ATOM     34  S   UNL     1      -2.506  -2.341  -2.113  1.00  0.00    +0.125 S 
ATOM     35  O   UNL     1      -3.218  -1.073  -2.078  1.00  0.00    -0.237 OA
ATOM     36  O   UNL     1      -3.049  -3.332  -3.036  1.00  0.00    -0.237 OA
ATOM     37  O   UNL     1      -1.052  -2.250  -2.072  1.00  0.00    -0.744 OA
ENDBRANCH  30  34
ENDBRANCH  26  28
ENDBRANCH   3  26
BRANCH   6  38
ATOM     38  C   UNL     1      -3.950   4.719   0.313  1.00  0.00    -0.018 A 
ATOM     39  C   UNL     1      -5.083   4.626   1.142  1.00  0.00    +0.012 A 
ATOM     40  C   UNL     1      -3.896   5.774  -0.617  1.00  0.00    +0.012 A 
ATOM     41  C   UNL     1      -6.121   5.558   1.051  1.00  0.00    +0.040 A 
ATOM     42  C   UNL     1      -4.933   6.706  -0.710  1.00  0.00    +0.040 A 
ATOM     43  C   UNL     1      -6.034   6.590   0.127  1.00  0.00    +0.123 A 
ATOM     44  F   UNL     1      -7.027   7.485   0.040  1.00  0.00    -0.207 F 
ENDBRANCH   6  38
TORSDOF 7
