REMARK SMILES C[N@H+](Cc1ccccc1OC(F)(F)F)Cn1nnc2ccccc2c1=O
REMARK SMILES IDX 4 1 5 2 6 3 7 4 8 5 9 6 3 7 2 8 1 9 15 11 16 12 17 13 25 14
REMARK SMILES IDX 18 15 24 16 26 17 19 18 23 19 20 20 22 21 21 22 10 23 11 24
REMARK SMILES IDX 12 25 13 26 14 27
REMARK H PARENT 2 10
ROOT
ATOM      1  C   UNL     1      -2.592  -0.843   0.113  1.00  0.00    +0.049 A 
ATOM      2  C   UNL     1      -2.340  -1.738  -0.945  1.00  0.00    +0.013 A 
ATOM      3  C   UNL     1      -3.250  -1.872  -1.989  1.00  0.00    +0.001 A 
ATOM      4  C   UNL     1      -4.417  -1.117  -1.991  1.00  0.00    +0.004 A 
ATOM      5  C   UNL     1      -4.681  -0.223  -0.951  1.00  0.00    +0.047 A 
ATOM      6  C   UNL     1      -3.777  -0.077   0.106  1.00  0.00    +0.138 A 
ENDROOT
BRANCH   1   7
ATOM      7  C   UNL     1      -1.573  -0.720   1.218  1.00  0.00    +0.304 C 
BRANCH   7   8
ATOM      8  N   UNL     1      -0.328   0.022   0.805  1.00  0.00    -0.315 N 
ATOM      9  C   UNL     1      -0.571   1.467   0.500  1.00  0.00    +0.334 C 
ATOM     10  H   UNL     1       0.004  -0.435  -0.061  1.00  0.00    +0.349 HD
BRANCH   8  11
ATOM     11  C   UNL     1       0.794  -0.190   1.777  1.00  0.00    +0.420 C 
BRANCH  11  12
ATOM     12  N   UNL     1       2.059   0.153   1.177  1.00  0.00    -0.159 N 
ATOM     13  N   UNL     1       2.814   1.083   1.822  1.00  0.00    -0.059 NA
ATOM     14  C   UNL     1       2.474  -0.538   0.059  1.00  0.00    +0.282 C 
ATOM     15  N   UNL     1       3.954   1.390   1.412  1.00  0.00    -0.131 NA
ATOM     16  C   UNL     1       3.818  -0.235  -0.413  1.00  0.00    +0.069 A 
ATOM     17  O   UNL     1       1.730  -1.324  -0.526  1.00  0.00    -0.267 OA
ATOM     18  C   UNL     1       4.506   0.735   0.302  1.00  0.00    +0.100 A 
ATOM     19  C   UNL     1       4.379  -0.877  -1.521  1.00  0.00    +0.016 A 
ATOM     20  C   UNL     1       5.799   1.069  -0.112  1.00  0.00    +0.031 A 
ATOM     21  C   UNL     1       5.668  -0.535  -1.921  1.00  0.00    +0.001 A 
ATOM     22  C   UNL     1       6.379   0.437  -1.217  1.00  0.00    +0.002 A 
ENDBRANCH  11  12
ENDBRANCH   8  11
ENDBRANCH   7   8
ENDBRANCH   1   7
BRANCH   6  23
ATOM     23  O   UNL     1      -3.933   0.782   1.159  1.00  0.00    -0.405 OA
BRANCH  23  24
ATOM     24  C   UNL     1      -5.140   1.536   1.244  1.00  0.00    +0.573 C 
ATOM     25  F   UNL     1      -6.213   0.726   1.308  1.00  0.00    -0.132 F 
ATOM     26  F   UNL     1      -5.087   2.273   2.373  1.00  0.00    -0.132 F 
ATOM     27  F   UNL     1      -5.247   2.374   0.195  1.00  0.00    -0.132 F 
ENDBRANCH  23  24
ENDBRANCH   6  23
TORSDOF 6
