REMARK SMILES Cc1cccc(OCC[N@H+](C)Cn2nc(-c3cc(C)ccc3C)c3ccccc3c2=O)c1
REMARK SMILES IDX 9 1 8 2 7 3 6 4 2 5 3 6 32 7 4 8 5 9 1 10 10 11 11 12 12 14
REMARK SMILES IDX 13 15 14 16 30 17 15 18 29 19 31 20 24 21 28 22 25 23 27 24
REMARK SMILES IDX 26 25 16 26 17 27 22 28 18 29 21 30 20 31 23 32 19 33
REMARK H PARENT 10 13
ROOT
ATOM      1  C   UNL     1       2.196   1.131   3.131  1.00  0.00    +0.305 C 
ENDROOT
BRANCH   1   2
ATOM      2  C   UNL     1       2.604   1.246   1.658  1.00  0.00    +0.290 C 
BRANCH   2   3
ATOM      3  O   UNL     1       1.458   1.725   0.949  1.00  0.00    -0.488 OA
BRANCH   3   4
ATOM      4  C   UNL     1       1.625   1.889  -0.397  1.00  0.00    +0.119 A 
ATOM      5  C   UNL     1       2.387   1.231  -2.606  1.00  0.00    -0.047 A 
ATOM      6  C   UNL     1       1.712   2.328  -3.154  1.00  0.00    +0.003 A 
ATOM      7  C   UNL     1       2.331   1.011  -1.222  1.00  0.00    +0.049 A 
ATOM      8  C   UNL     1       1.002   3.201  -2.332  1.00  0.00    +0.004 A 
ATOM      9  C   UNL     1       0.953   2.976  -0.957  1.00  0.00    +0.046 A 
ATOM     10  C   UNL     1       3.107   0.263  -3.501  1.00  0.00    +0.044 C 
ENDBRANCH   3   4
ENDBRANCH   2   3
ENDBRANCH   1   2
BRANCH   1  11
ATOM     11  N   UNL     1       0.996   0.224   3.299  1.00  0.00    -0.316 N 
ATOM     12  C   UNL     1       0.248   0.445   4.565  1.00  0.00    +0.334 C 
ATOM     13  H   UNL     1       0.343   0.439   2.518  1.00  0.00    +0.349 HD
BRANCH  11  14
ATOM     14  C   UNL     1       1.260  -1.218   3.010  1.00  0.00    +0.418 C 
BRANCH  14  15
ATOM     15  N   UNL     1       0.746  -1.468   1.683  1.00  0.00    -0.177 N 
ATOM     16  N   UNL     1      -0.435  -0.850   1.344  1.00  0.00    -0.164 NA
ATOM     17  C   UNL     1       1.462  -2.308   0.843  1.00  0.00    +0.279 C 
ATOM     18  C   UNL     1      -0.936  -1.055   0.159  1.00  0.00    +0.099 C 
ATOM     19  C   UNL     1       0.891  -2.557  -0.490  1.00  0.00    +0.051 A 
ATOM     20  O   UNL     1       2.533  -2.810   1.172  1.00  0.00    -0.267 OA
ATOM     21  C   UNL     1      -0.308  -1.945  -0.844  1.00  0.00    +0.015 A 
ATOM     22  C   UNL     1       1.550  -3.405  -1.389  1.00  0.00    +0.014 A 
ATOM     23  C   UNL     1      -0.867  -2.202  -2.103  1.00  0.00    +0.011 A 
ATOM     24  C   UNL     1       0.998  -3.646  -2.646  1.00  0.00    +0.001 A 
ATOM     25  C   UNL     1      -0.210  -3.048  -3.000  1.00  0.00    +0.001 A 
BRANCH  18  26
ATOM     26  C   UNL     1      -2.194  -0.342  -0.169  1.00  0.00    +0.006 A 
ATOM     27  C   UNL     1      -2.122   0.735  -1.063  1.00  0.00    +0.014 A 
ATOM     28  C   UNL     1      -3.410  -0.711   0.427  1.00  0.00    -0.042 A 
ATOM     29  C   UNL     1      -3.274   1.458  -1.389  1.00  0.00    -0.050 A 
ATOM     30  C   UNL     1      -4.553   0.036   0.112  1.00  0.00    +0.004 A 
ATOM     31  C   UNL     1      -4.485   1.108  -0.784  1.00  0.00    +0.004 A 
ATOM     32  C   UNL     1      -3.512  -1.850   1.400  1.00  0.00    +0.045 C 
ATOM     33  C   UNL     1      -3.196   2.628  -2.324  1.00  0.00    +0.044 C 
ENDBRANCH  18  26
ENDBRANCH  14  15
ENDBRANCH  11  14
ENDBRANCH   1  11
TORSDOF 7
