REMARK SMILES COc1ccc(Cl)cc1C[N@H+](C)Cc1nc2scc(-c3ccccc3)c2c(=O)[n-]1
REMARK SMILES IDX 10 1 9 2 3 3 4 4 5 5 8 6 6 7 7 8 2 9 1 10 11 11 12 12 13 14
REMARK SMILES IDX 14 15 15 16 29 17 16 18 27 19 17 20 26 21 28 22 18 23 19 24
REMARK SMILES IDX 20 25 21 26 25 27 22 28 24 29 23 30
REMARK H PARENT 11 13
ROOT
ATOM      1  C   UNL     1      -3.509   1.592   0.200  1.00  0.00    +0.303 C 
ENDROOT
BRANCH   1   2
ATOM      2  C   UNL     1      -4.214   0.324  -0.222  1.00  0.00    +0.050 A 
ATOM      3  C   UNL     1      -3.609  -0.554  -1.144  1.00  0.00    +0.127 A 
ATOM      4  C   UNL     1      -4.261  -1.730  -1.520  1.00  0.00    +0.048 A 
ATOM      5  C   UNL     1      -5.514  -2.039  -0.984  1.00  0.00    +0.024 A 
ATOM      6  C   UNL     1      -5.475   0.006   0.307  1.00  0.00    +0.034 A 
ATOM      7  C   UNL     1      -6.115  -1.172  -0.076  1.00  0.00    +0.041 A 
ATOM      8 Cl   UNL     1      -7.657  -1.554   0.582  1.00  0.00    -0.084 Cl
BRANCH   3   9
ATOM      9  O   UNL     1      -2.388  -0.151  -1.611  1.00  0.00    -0.496 OA
ATOM     10  C   UNL     1      -1.600  -1.106  -2.321  1.00  0.00    +0.278 C 
ENDBRANCH   3   9
ENDBRANCH   1   2
BRANCH   1  11
ATOM     11  N   UNL     1      -2.179   1.356   0.825  1.00  0.00    -0.330 N 
ATOM     12  C   UNL     1      -2.192   0.618   2.119  1.00  0.00    +0.333 C 
ATOM     13  H   UNL     1      -1.647   0.764   0.153  1.00  0.00    +0.348 HD
BRANCH  11  14
ATOM     14  C   UNL     1      -1.290   2.581   0.871  1.00  0.00    +0.290 C 
BRANCH  14  15
ATOM     15  C   UNL     1       0.158   2.125   0.858  1.00  0.00    -0.023 C 
ATOM     16  N   UNL     1       0.991   2.588   1.736  1.00  0.00    -0.426 NA
ATOM     17  N   UNL     1       0.362   1.213  -0.103  1.00  0.00    -0.399 NA
ATOM     18  C   UNL     1       2.227   2.045   1.627  1.00  0.00    +0.025 A 
ATOM     19  C   UNL     1       1.522   0.546  -0.137  1.00  0.00    +0.179 C 
ATOM     20  S   UNL     1       3.522   2.534   2.612  1.00  0.00    -0.147 S 
ATOM     21  C   UNL     1       2.573   1.047   0.745  1.00  0.00    +0.040 A 
ATOM     22  O   UNL     1       1.690  -0.429  -0.860  1.00  0.00    -0.293 OA
ATOM     23  C   UNL     1       4.576   1.412   1.866  1.00  0.00    +0.074 A 
ATOM     24  C   UNL     1       3.952   0.660   0.885  1.00  0.00    +0.003 A 
BRANCH  24  25
ATOM     25  C   UNL     1       4.713  -0.334   0.133  1.00  0.00    -0.017 A 
ATOM     26  C   UNL     1       4.749  -0.287  -1.265  1.00  0.00    +0.009 A 
ATOM     27  C   UNL     1       5.439  -1.331   0.800  1.00  0.00    +0.009 A 
ATOM     28  C   UNL     1       5.500  -1.220  -1.986  1.00  0.00    +0.001 A 
ATOM     29  C   UNL     1       6.191  -2.262   0.078  1.00  0.00    +0.001 A 
ATOM     30  C   UNL     1       6.222  -2.204  -1.314  1.00  0.00    +0.000 A 
ENDBRANCH  24  25
ENDBRANCH  14  15
ENDBRANCH  11  14
ENDBRANCH   1  11
TORSDOF 6
