REMARK SMILES Cc1ncc(CSSCc2cnc(C)c([O-])c2CO)c(CO)c1[O-]
REMARK SMILES IDX 7 1 6 2 5 3 2 4 3 5 23 6 4 7 20 8 1 9 24 10 21 11 22 12 8 14
REMARK SMILES IDX 9 15 10 16 11 17 17 18 12 19 15 20 13 21 16 22 14 23 18 24
REMARK SMILES IDX 19 25
REMARK H PARENT 22 13 19 26
ROOT
ATOM      1  S   UNL     1       1.090  -1.090  -1.008  1.00  0.00    -0.089 SA
ENDROOT
BRANCH   1   2
ATOM      2  C   UNL     1       1.390  -1.116   0.791  1.00  0.00    +0.119 C 
BRANCH   2   3
ATOM      3  C   UNL     1       2.831  -1.394   1.129  1.00  0.00    -0.014 A 
ATOM      4  C   UNL     1       5.385  -2.147   1.823  1.00  0.00    +0.030 A 
ATOM      5  N   UNL     1       4.430  -3.115   1.730  1.00  0.00    -0.262 NA
ATOM      6  C   UNL     1       5.186  -0.760   1.580  1.00  0.00    -0.081 A 
ATOM      7  C   UNL     1       3.198  -2.710   1.387  1.00  0.00    +0.116 A 
ATOM      8  C   UNL     1       3.845  -0.410   1.209  1.00  0.00    -0.023 A 
ATOM      9  C   UNL     1       6.750  -2.653   2.221  1.00  0.00    +0.066 C 
ATOM     10  O   UNL     1       6.117   0.116   1.694  1.00  0.00    -0.871 OA
BRANCH   8  11
ATOM     11  C   UNL     1       3.545   1.044   0.852  1.00  0.00    +0.191 C 
BRANCH  11  12
ATOM     12  O   UNL     1       3.992   1.940   1.869  1.00  0.00    -0.392 OA
ATOM     13  H   UNL     1       4.872   1.542   2.098  1.00  0.00    +0.211 HD
ENDBRANCH  11  12
ENDBRANCH   8  11
ENDBRANCH   2   3
ENDBRANCH   1   2
BRANCH   1  14
ATOM     14  S   UNL     1      -0.969  -1.086  -1.106  1.00  0.00    -0.089 SA
BRANCH  14  15
ATOM     15  C   UNL     1      -1.373   0.689  -0.961  1.00  0.00    +0.119 C 
BRANCH  15  16
ATOM     16  C   UNL     1      -2.857   0.923  -0.848  1.00  0.00    -0.014 A 
ATOM     17  C   UNL     1      -3.393   1.110   0.421  1.00  0.00    +0.116 A 
ATOM     18  C   UNL     1      -3.754   0.956  -1.945  1.00  0.00    -0.023 A 
ATOM     19  N   UNL     1      -4.689   1.330   0.685  1.00  0.00    -0.262 NA
ATOM     20  C   UNL     1      -5.156   1.182  -1.743  1.00  0.00    -0.081 A 
ATOM     21  C   UNL     1      -5.533   1.364  -0.384  1.00  0.00    +0.030 A 
ATOM     22  O   UNL     1      -5.994   1.224  -2.716  1.00  0.00    -0.871 OA
ATOM     23  C   UNL     1      -6.978   1.616  -0.030  1.00  0.00    +0.066 C 
BRANCH  18  24
ATOM     24  C   UNL     1      -3.246   0.682  -3.361  1.00  0.00    +0.191 C 
BRANCH  24  25
ATOM     25  O   UNL     1      -3.770   1.603  -4.319  1.00  0.00    -0.392 OA
ATOM     26  H   UNL     1      -4.702   1.712  -3.992  1.00  0.00    +0.211 HD
ENDBRANCH  24  25
ENDBRANCH  18  24
ENDBRANCH  15  16
ENDBRANCH  14  15
ENDBRANCH   1  14
TORSDOF 9
