REMARK SMILES CCc1nn(CCC[NH+]2CCN(c3cccc(Cl)c3)CC2)c(=O)n1CCOc1ccccc1
REMARK SMILES IDX 6 1 5 2 3 3 4 4 24 5 22 6 23 7 2 8 1 9 25 10 26 11 27 12
REMARK SMILES IDX 28 13 29 14 33 15 30 16 32 17 31 18 7 19 8 20 9 21 10 22
REMARK SMILES IDX 21 23 11 24 20 25 12 26 13 28 14 29 19 30 15 31 17 32 16 33
REMARK SMILES IDX 18 34
REMARK H PARENT 9 27
ROOT
ATOM      1  C   UNL     1      -1.124   2.336   3.544  1.00  0.00    +0.156 C 
ENDROOT
BRANCH   1   2
ATOM      2  N   UNL     1      -1.549   2.045   2.196  1.00  0.00    -0.213 N 
ATOM      3  C   UNL     1      -2.785   1.402   0.613  1.00  0.00    +0.133 C 
ATOM      4  N   UNL     1      -2.786   1.539   1.910  1.00  0.00    -0.155 NA
ATOM      5  N   UNL     1      -1.635   1.778   0.015  1.00  0.00    -0.275 N 
ATOM      6  C   UNL     1      -0.807   2.167   1.031  1.00  0.00    +0.346 C 
ATOM      7  O   UNL     1       0.387   2.436   0.989  1.00  0.00    -0.246 OA
BRANCH   3   8
ATOM      8  C   UNL     1      -3.979   0.892  -0.141  1.00  0.00    +0.074 C 
ATOM      9  C   UNL     1      -4.798   2.049  -0.684  1.00  0.00    +0.012 C 
ENDBRANCH   3   8
BRANCH   5  10
ATOM     10  C   UNL     1      -1.232   1.679  -1.383  1.00  0.00    +0.170 C 
BRANCH  10  11
ATOM     11  C   UNL     1      -0.188   0.578  -1.598  1.00  0.00    +0.251 C 
BRANCH  11  12
ATOM     12  O   UNL     1      -0.636  -0.672  -1.067  1.00  0.00    -0.492 OA
BRANCH  12  13
ATOM     13  C   UNL     1      -1.345  -1.513  -1.877  1.00  0.00    +0.119 A 
ATOM     14  C   UNL     1      -1.711  -2.721  -1.274  1.00  0.00    +0.046 A 
ATOM     15  C   UNL     1      -1.729  -1.270  -3.196  1.00  0.00    +0.046 A 
ATOM     16  C   UNL     1      -2.446  -3.676  -1.977  1.00  0.00    +0.004 A 
ATOM     17  C   UNL     1      -2.465  -2.228  -3.901  1.00  0.00    +0.004 A 
ATOM     18  C   UNL     1      -2.822  -3.429  -3.293  1.00  0.00    +0.000 A 
ENDBRANCH  12  13
ENDBRANCH  11  12
ENDBRANCH  10  11
ENDBRANCH   5  10
ENDBRANCH   1   2
BRANCH   1  19
ATOM     19  C   UNL     1      -0.497   1.128   4.242  1.00  0.00    +0.085 C 
BRANCH  19  20
ATOM     20  C   UNL     1       1.022   1.017   4.095  1.00  0.00    +0.264 C 
BRANCH  20  21
ATOM     21  N   UNL     1       1.491   0.601   2.731  1.00  0.00    -0.332 N 
ATOM     22  C   UNL     1       3.003   0.649   2.597  1.00  0.00    +0.283 C 
ATOM     23  C   UNL     1       0.939  -0.732   2.248  1.00  0.00    +0.283 C 
ATOM     24  C   UNL     1       3.392   0.530   1.111  1.00  0.00    +0.178 C 
ATOM     25  C   UNL     1       1.854  -1.469   1.240  1.00  0.00    +0.178 C 
ATOM     26  N   UNL     1       2.687  -0.568   0.425  1.00  0.00    -0.360 N 
ATOM     27  H   UNL     1       1.167   1.306   2.040  1.00  0.00    +0.348 HD
BRANCH  26  28
ATOM     28  C   UNL     1       3.057  -0.901  -0.880  1.00  0.00    +0.038 A 
ATOM     29  C   UNL     1       3.709   0.024  -1.720  1.00  0.00    +0.026 A 
ATOM     30  C   UNL     1       2.783  -2.157  -1.448  1.00  0.00    +0.046 A 
ATOM     31  C   UNL     1       4.060  -0.279  -3.043  1.00  0.00    +0.004 A 
ATOM     32  C   UNL     1       3.126  -2.462  -2.771  1.00  0.00    +0.043 A 
ATOM     33  C   UNL     1       3.764  -1.527  -3.573  1.00  0.00    +0.020 A 
ATOM     34 Cl   UNL     1       2.750  -4.017  -3.409  1.00  0.00    -0.084 Cl
ENDBRANCH  26  28
ENDBRANCH  20  21
ENDBRANCH  19  20
ENDBRANCH   1  19
TORSDOF 10
