REMARK SMILES Cc1ccc(/[NH+]=C/N(C)/C=[NH+]/c2ccc(C)cc2C)c(C)c1
REMARK SMILES IDX 8 1 9 2 7 3 6 4 5 6 2 7 3 8 22 9 4 10 20 11 1 12 21 13 10 14
REMARK SMILES IDX 11 15 12 17 13 18 18 19 14 20 17 21 15 22 19 23 16 24
REMARK H PARENT 6 5 11 16
ROOT
ATOM      1  N   UNL     1       0.015  -0.587  -0.932  1.00  0.00    -0.209 N 
ATOM      2  C   UNL     1       0.036  -1.509  -2.087  1.00  0.00    +0.299 C 
ENDROOT
BRANCH   1   3
ATOM      3  C   UNL     1      -1.163  -0.176  -0.407  1.00  0.00    +0.405 C 
ATOM      4  N   UNL     1      -2.396  -0.529  -0.764  1.00  0.00    -0.247 N 
ATOM      5  H   UNL     1      -2.529  -1.246  -1.465  1.00  0.00    +0.311 HD
BRANCH   4   6
ATOM      6  C   UNL     1      -3.546  -0.030  -0.186  1.00  0.00    +0.127 A 
ATOM      7  C   UNL     1      -5.961   0.932   0.957  1.00  0.00    -0.051 A 
ATOM      8  C   UNL     1      -4.759   1.601   1.175  1.00  0.00    +0.008 A 
ATOM      9  C   UNL     1      -5.962  -0.201   0.141  1.00  0.00    +0.011 A 
ATOM     10  C   UNL     1      -3.569   1.127   0.613  1.00  0.00    +0.052 A 
ATOM     11  C   UNL     1      -4.772  -0.692  -0.429  1.00  0.00    -0.004 A 
ATOM     12  C   UNL     1      -7.246   1.459   1.530  1.00  0.00    +0.044 C 
ATOM     13  C   UNL     1      -4.869  -1.928  -1.288  1.00  0.00    +0.049 C 
ENDBRANCH   4   6
ENDBRANCH   1   3
BRANCH   1  14
ATOM     14  C   UNL     1       1.172  -0.146  -0.388  1.00  0.00    +0.405 C 
ATOM     15  N   UNL     1       2.420  -0.467  -0.724  1.00  0.00    -0.247 N 
ATOM     16  H   UNL     1       2.583  -1.181  -1.423  1.00  0.00    +0.311 HD
BRANCH  15  17
ATOM     17  C   UNL     1       3.548   0.060  -0.128  1.00  0.00    +0.127 A 
ATOM     18  C   UNL     1       3.528   1.217   0.670  1.00  0.00    +0.052 A 
ATOM     19  C   UNL     1       4.794  -0.571  -0.352  1.00  0.00    -0.004 A 
ATOM     20  C   UNL     1       4.696   1.721   1.252  1.00  0.00    +0.008 A 
ATOM     21  C   UNL     1       5.961  -0.050   0.238  1.00  0.00    +0.011 A 
ATOM     22  C   UNL     1       5.918   1.082   1.054  1.00  0.00    -0.051 A 
ATOM     23  C   UNL     1       4.936  -1.804  -1.208  1.00  0.00    +0.049 C 
ATOM     24  C   UNL     1       7.180   1.642   1.648  1.00  0.00    +0.044 C 
ENDBRANCH  15  17
ENDBRANCH   1  14
TORSDOF 4
