REMARK SMILES COc1ccc2cc1Oc1ccc(cc1)C[C@H]1c3c(cc4c(c3Oc3cc5c(cc3OC)CC[NH+](C)[C@@H]5C2)OCO4)CC[NH+]1C
REMARK SMILES IDX 16 1 13 2 10 3 11 4 15 5 12 6 14 7 9 8 8 9 3 10 4 11 5 12
REMARK SMILES IDX 7 13 6 14 2 15 1 16 38 17 17 19 18 20 44 21 19 22 23 23
REMARK SMILES IDX 43 24 20 25 42 26 22 27 21 28 39 29 41 30 40 31 45 32 24 34
REMARK SMILES IDX 25 35 26 36 30 37 27 38 29 39 28 40 37 41 33 42 35 43 34 44
REMARK SMILES IDX 36 45 31 48 32 49
REMARK H PARENT 44 33 35 46
REMARK Flexibility Score:  101.900
ROOT
ATOM      1  C   UNL     1      -3.255   2.421  -1.184  1.00  0.00    +0.106 C 
ENDROOT
BRANCH   1   2
ATOM      2  C   UNL     1      -1.940   2.754  -0.513  1.00  0.00    -0.041 A 
ATOM      3  C   UNL     1       0.485   3.323   0.778  1.00  0.00    +0.127 A 
ATOM      4  C   UNL     1       0.457   3.132  -0.605  1.00  0.00    +0.047 A 
ATOM      5  C   UNL     1      -0.696   3.272   1.512  1.00  0.00    +0.047 A 
ATOM      6  C   UNL     1      -0.750   2.838  -1.248  1.00  0.00    +0.008 A 
ATOM      7  C   UNL     1      -1.902   2.986   0.872  1.00  0.00    +0.008 A 
BRANCH   3   8
ATOM      8  O   UNL     1       1.632   3.637   1.473  1.00  0.00    -0.453 OA
BRANCH   8   9
ATOM      9  C   UNL     1       2.752   2.883   1.190  1.00  0.00    +0.169 A 
ATOM     10  C   UNL     1       3.913   3.535   0.757  1.00  0.00    +0.161 A 
ATOM     11  C   UNL     1       5.049   2.769   0.486  1.00  0.00    +0.051 A 
ATOM     12  C   UNL     1       5.023   1.377   0.645  1.00  0.00    +0.008 A 
ATOM     13  C   UNL     1       2.738   1.497   1.399  1.00  0.00    +0.055 A 
ATOM     14  C   UNL     1       3.865   0.726   1.094  1.00  0.00    -0.038 A 
BRANCH  10  15
ATOM     15  O   UNL     1       3.824   4.891   0.601  1.00  0.00    -0.493 OA
ATOM     16  C   UNL     1       5.040   5.611   0.432  1.00  0.00    +0.278 C 
ENDBRANCH  10  15
BRANCH  14  17
ATOM     17  C   UNL     1       3.821  -0.783   1.198  1.00  0.00    +0.106 CG0
ATOM     18  G   UNL     1       3.541  -1.448  -0.184  1.00  0.00    +0.000 G0
ENDBRANCH  14  17
ENDBRANCH   8   9
ENDBRANCH   3   8
ENDBRANCH   1   2
BRANCH   1  19
ATOM     19  C   UNL     1      -3.555   0.902  -1.381  1.00  0.00    +0.223 C 
ATOM     20  C   UNL     1      -3.489   0.118  -0.082  1.00  0.00    +0.060 A 
ATOM     21  N   UNL     1      -4.932   0.693  -2.031  1.00  0.00    -0.331 N 
ATOM     22  C   UNL     1      -4.653  -0.030   0.717  1.00  0.00    -0.026 A 
ATOM     23  C   UNL     1      -2.256  -0.415   0.363  1.00  0.00    +0.182 A 
ATOM     24  C   UNL     1      -6.065   1.101  -1.119  1.00  0.00    +0.267 C 
ATOM     25  C   UNL     1      -4.553  -0.603   1.994  1.00  0.00    +0.055 A 
ATOM     26  C   UNL     1      -6.027   0.314   0.191  1.00  0.00    +0.097 C 
ATOM     27  C   UNL     1      -2.187  -0.924   1.651  1.00  0.00    +0.208 A 
ATOM     28  C   UNL     1      -3.311  -1.009   2.437  1.00  0.00    +0.170 A 
ATOM     29  O   UNL     1      -1.082  -1.381   2.304  1.00  0.00    -0.450 OA
ATOM     30  O   UNL     1      -3.061  -1.546   3.659  1.00  0.00    -0.453 OA
ATOM     31  C   UNL     1      -1.640  -1.756   3.581  1.00  0.00    +0.468 C 
ATOM     32  C   UNL     1      -5.062   1.266  -3.410  1.00  0.00    +0.333 C 
ATOM     33  H   UNL     1      -5.005  -0.327  -2.145  1.00  0.00    +0.348 HD
BRANCH  23  34
ATOM     34  O   UNL     1      -1.195  -0.355  -0.514  1.00  0.00    -0.449 OA
BRANCH  34  35
ATOM     35  C   UNL     1      -0.273  -1.381  -0.502  1.00  0.00    +0.170 A 
ATOM     36  C   UNL     1       1.066  -0.982  -0.425  1.00  0.00    +0.061 A 
ATOM     37  C   UNL     1      -0.607  -2.737  -0.601  1.00  0.00    +0.161 A 
ATOM     38  C   UNL     1       2.101  -1.924  -0.325  1.00  0.00    +0.017 A 
ATOM     39  C   UNL     1       0.419  -3.683  -0.517  1.00  0.00    +0.055 A 
ATOM     40  C   UNL     1       1.764  -3.290  -0.345  1.00  0.00    -0.029 A 
ATOM     41  C   UNL     1       3.541  -1.448  -0.184  1.00  0.00    +0.219 CG0
ATOM     42  C   UNL     1       2.823  -4.362  -0.255  1.00  0.00    +0.097 C 
ATOM     43  N   UNL     1       4.563  -2.569  -0.420  1.00  0.00    -0.331 N 
ATOM     44  C   UNL     1       4.156  -3.845   0.278  1.00  0.00    +0.267 C 
ATOM     45  C   UNL     1       4.893  -2.758  -1.878  1.00  0.00    +0.333 C 
ATOM     46  H   UNL     1       5.448  -2.271   0.009  1.00  0.00    +0.348 HD
ATOM     47  G   UNL     1       3.821  -0.783   1.198  1.00  0.00    +0.000 G0
BRANCH  37  48
ATOM     48  O   UNL     1      -1.925  -3.040  -0.822  1.00  0.00    -0.493 OA
ATOM     49  C   UNL     1      -2.336  -4.368  -0.511  1.00  0.00    +0.278 C 
ENDBRANCH  37  48
ENDBRANCH  34  35
ENDBRANCH  23  34
ENDBRANCH   1  19
TORSDOF 2
