REMARK SMILES COc1cccccc(=O)c2ccccc2[n-]c2ccccc2cc1
REMARK SMILES IDX 18 1 19 2 20 3 21 4 22 5 23 6 24 7 25 8 3 9 4 10 2 11 1 12
REMARK SMILES IDX 5 13 6 14 7 15 8 16 17 18 16 19 15 20 11 21 14 22 12 23
REMARK SMILES IDX 13 24 9 25 10 26
REMARK H PARENT
REMARK Flexibility Score:   45.900
ROOT
ATOM      1  C   UNL     1      -0.712   1.676  -1.350  1.00  0.00    -0.129 A 
ATOM      2  C   UNL     1      -1.384   2.562  -2.215  1.00  0.00    -0.015 A 
ATOM      3  C   UNL     1      -0.875   3.824  -2.528  1.00  0.00    -0.001 A 
ATOM      4  C   UNL     1       0.337   4.236  -1.990  1.00  0.00    +0.001 A 
ATOM      5  C   UNL     1       1.039   3.379  -1.144  1.00  0.00    +0.007 A 
ATOM      6  C   UNL     1       0.538   2.102  -0.828  1.00  0.00    -0.040 A 
ENDROOT
BRANCH   6   7
ATOM      7  C   UNL     1       1.362   1.290   0.085  1.00  0.00    +0.010 C 
ATOM      8  C   UNL     1       1.913   0.123  -0.285  1.00  0.00    +0.047 C 
BRANCH   8   9
ATOM      9  C   UNL     1       2.655  -0.770   0.595  1.00  0.00    +0.118 C 
ATOM     10  C   UNL     1       2.862  -2.075   0.310  1.00  0.00    +0.046 C 
BRANCH   9  11
ATOM     11  O   UNL     1       3.131  -0.125   1.724  1.00  0.00    -0.497 OA
ATOM     12  C   UNL     1       3.666  -0.913   2.775  1.00  0.00    +0.278 C 
ENDBRANCH   9  11
BRANCH  10  13
ATOM     13  C   UNL     1       2.409  -2.831  -0.843  1.00  0.00    +0.004 C 
ATOM     14  C   UNL     1       1.152  -3.036  -1.268  1.00  0.00    +0.000 C 
BRANCH  14  15
ATOM     15  C   UNL     1      -0.065  -2.526  -0.669  1.00  0.00    +0.004 C 
ATOM     16  C   UNL     1      -1.266  -2.674  -1.246  1.00  0.00    +0.052 CG0
ATOM     17  G   UNL     1      -2.549  -2.162  -0.692  1.00  0.00    +0.000 G0
ENDBRANCH  14  15
ENDBRANCH  10  13
ENDBRANCH   8   9
ENDBRANCH   6   7
BRANCH   1  18
ATOM     18  N   UNL     1      -1.270   0.459  -1.125  1.00  0.00    -0.657 NA
BRANCH  18  19
ATOM     19  C   UNL     1      -1.972   0.244   0.024  1.00  0.00    -0.125 A 
ATOM     20  C   UNL     1      -2.167   1.218   1.032  1.00  0.00    -0.015 A 
ATOM     21  C   UNL     1      -2.593  -1.012   0.260  1.00  0.00    +0.007 A 
ATOM     22  C   UNL     1      -2.918   0.975   2.189  1.00  0.00    -0.001 A 
ATOM     23  C   UNL     1      -3.366  -1.245   1.417  1.00  0.00    +0.011 A 
ATOM     24  C   UNL     1      -3.522  -0.258   2.383  1.00  0.00    +0.001 A 
BRANCH  21  25
ATOM     25  C   UNL     1      -2.549  -2.162  -0.692  1.00  0.00    +0.184 CG0
ATOM     26  O   UNL     1      -3.584  -2.775  -0.972  1.00  0.00    -0.289 OA
ATOM     27  G   UNL     1      -1.266  -2.674  -1.246  1.00  0.00    +0.000 G0
ENDBRANCH  21  25
ENDBRANCH  18  19
ENDBRANCH   1  18
TORSDOF 1
