REMARK SMILES CN(CC(=O)N1CCC[NH2+]CC(=O)c2cc(F)ccc21)c1cccc(Br)c1
REMARK SMILES IDX 6 1 4 2 5 3 3 4 2 5 1 6 21 7 22 8 27 9 23 10 25 11 24 12
REMARK SMILES IDX 26 13 7 14 8 15 20 17 19 18 14 19 18 20 15 21 16 22 17 23
REMARK SMILES IDX 12 24 13 25 11 26 10 27 9 30
REMARK H PARENT 10 28 10 29
REMARK Flexibility Score:   80.900
ROOT
ATOM      1  N   UNL     1      -0.934  -0.262  -1.586  1.00  0.00    -0.310 N 
ENDROOT
BRANCH   1   2
ATOM      2  C   UNL     1       0.243  -0.255  -2.356  1.00  0.00    +0.246 C 
ATOM      3  O   UNL     1       0.488  -1.187  -3.130  1.00  0.00    -0.272 OA
BRANCH   2   4
ATOM      4  C   UNL     1       1.307   0.840  -2.115  1.00  0.00    +0.216 C 
BRANCH   4   5
ATOM      5  N   UNL     1       2.325   0.356  -1.157  1.00  0.00    -0.365 N 
ATOM      6  C   UNL     1       3.320  -0.568  -1.715  1.00  0.00    +0.144 C 
BRANCH   5   7
ATOM      7  C   UNL     1       2.343   0.678   0.191  1.00  0.00    +0.038 A 
ATOM      8  C   UNL     1       3.080  -0.081   1.121  1.00  0.00    +0.026 A 
ATOM      9  C   UNL     1       1.636   1.770   0.718  1.00  0.00    +0.041 A 
ATOM     10  C   UNL     1       3.089   0.208   2.492  1.00  0.00    +0.003 A 
ATOM     11  C   UNL     1       1.636   2.061   2.088  1.00  0.00    +0.020 A 
ATOM     12  C   UNL     1       2.356   1.280   2.981  1.00  0.00    +0.016 A 
ATOM     13 Br   UNL     1       0.633   3.530   2.729  1.00  0.00    -0.051 Br
ENDBRANCH   5   7
ENDBRANCH   4   5
ENDBRANCH   2   4
ENDBRANCH   1   2
BRANCH   1  14
ATOM     14  C   UNL     1      -1.854  -1.398  -1.776  1.00  0.00    +0.131 C 
BRANCH  14  15
ATOM     15  C   UNL     1      -1.328  -2.749  -1.251  1.00  0.00    +0.083 CG0
ATOM     16  G   UNL     1      -1.793  -3.107   0.155  1.00  0.00    +0.000 G0
ENDBRANCH  14  15
ENDBRANCH   1  14
BRANCH   1  17
ATOM     17  C   UNL     1      -1.457   0.888  -0.925  1.00  0.00    +0.055 A 
ATOM     18  C   UNL     1      -1.627   2.070  -1.667  1.00  0.00    +0.030 A 
ATOM     19  C   UNL     1      -1.920   0.856   0.407  1.00  0.00    +0.050 A 
ATOM     20  C   UNL     1      -2.219   3.196  -1.091  1.00  0.00    +0.041 A 
ATOM     21  C   UNL     1      -2.535   1.982   0.972  1.00  0.00    +0.053 A 
ATOM     22  C   UNL     1      -2.669   3.141   0.220  1.00  0.00    +0.124 A 
ATOM     23  F   UNL     1      -3.248   4.216   0.765  1.00  0.00    -0.207 F 
BRANCH  19  24
ATOM     24  C   UNL     1      -1.798  -0.329   1.283  1.00  0.00    +0.218 C 
ATOM     25  O   UNL     1      -2.739  -0.657   2.007  1.00  0.00    -0.288 OA
BRANCH  24  26
ATOM     26  C   UNL     1      -0.534  -1.163   1.262  1.00  0.00    +0.342 C 
BRANCH  26  27
ATOM     27  N   UNL     1      -0.863  -2.634   1.226  1.00  0.00    -0.340 N 
ATOM     28  H   UNL     1      -1.318  -2.844   2.128  1.00  0.00    +0.346 HD
ATOM     29  H   UNL     1       0.011  -3.175   1.208  1.00  0.00    +0.346 HD
BRANCH  27  30
ATOM     30  C   UNL     1      -1.793  -3.107   0.155  1.00  0.00    +0.262 CG0
ATOM     31  G   UNL     1      -1.328  -2.749  -1.251  1.00  0.00    +0.000 G0
ENDBRANCH  27  30
ENDBRANCH  26  27
ENDBRANCH  24  26
ENDBRANCH  19  24
ENDBRANCH   1  17
TORSDOF 4
