REMARK SMILES CC1(C)C([NH2+]CCC(N)=O)=CC=C2OCC(=O)[NH+](C(C)(C)C)C=C21
REMARK SMILES IDX 5 1 4 4 2 5 24 6 11 7 23 8 13 9 12 10 1 11 3 12 18 13 16 15
REMARK SMILES IDX 17 16 19 18 20 19 21 20 22 21 14 22 15 23 6 25 7 26 8 27
REMARK SMILES IDX 9 28 10 29
REMARK H PARENT 5 2 5 3 18 14 9 30 9 31
REMARK Flexibility Score:   23.900
ROOT
ATOM      1  N   UNL     1       3.380   0.331  -0.585  1.00  0.00    -0.316 N 
ATOM      2  H   UNL     1       3.464   0.767   0.362  1.00  0.00    +0.352 HD
ATOM      3  H   UNL     1       3.870   0.998  -1.200  1.00  0.00    +0.352 HD
ENDROOT
BRANCH   1   4
ATOM      4  C   UNL     1       2.000   0.167  -0.960  1.00  0.00    +0.116 C 
ATOM      5  C   UNL     1       0.834   0.353   0.059  1.00  0.00    +0.073 C 
ATOM      6  C   UNL     1      -0.600   0.148  -0.568  1.00  0.00    +0.063 C 
ATOM      7  C   UNL     1       1.776  -0.075  -2.261  1.00  0.00    +0.067 C 
ATOM      8  C   UNL     1      -1.703   0.212   0.226  1.00  0.00    +0.239 C 
ATOM      9  C   UNL     1      -0.651  -0.091  -2.024  1.00  0.00    +0.130 C 
ATOM     10  C   UNL     1       0.445  -0.216  -2.780  1.00  0.00    +0.053 C 
ATOM     11  C   UNL     1       0.918   1.792   0.618  1.00  0.00    +0.027 C 
ATOM     12  C   UNL     1       1.037  -0.662   1.207  1.00  0.00    +0.027 C 
BRANCH   8  13
ATOM     13  N   UNL     1      -3.020   0.016  -0.324  1.00  0.00    -0.238 N 
ATOM     14  H   UNL     1      -2.979  -0.814  -0.939  1.00  0.00    +0.362 HD
BRANCH  13  15
ATOM     15  C   UNL     1      -3.296   1.099  -1.314  1.00  0.00    +0.354 CG0
ATOM     16  O   UNL     1      -3.930   2.063  -0.930  1.00  0.00    -0.226 OA
ATOM     17  G   UNL     1      -2.674   0.929  -2.684  1.00  0.00    +0.000 G0
ENDBRANCH  13  15
BRANCH  13  18
ATOM     18  C   UNL     1      -4.128  -0.306   0.686  1.00  0.00    +0.100 C 
ATOM     19  C   UNL     1      -4.337   0.804   1.727  1.00  0.00    +0.079 C 
ATOM     20  C   UNL     1      -5.435  -0.561  -0.091  1.00  0.00    +0.079 C 
ATOM     21  C   UNL     1      -3.747  -1.621   1.401  1.00  0.00    +0.079 C 
ENDBRANCH  13  18
ENDBRANCH   8  13
BRANCH   9  22
ATOM     22  O   UNL     1      -1.887  -0.278  -2.627  1.00  0.00    -0.479 OA
BRANCH  22  23
ATOM     23  C   UNL     1      -2.674   0.929  -2.684  1.00  0.00    +0.374 CG0
ATOM     24  G   UNL     1      -3.296   1.099  -1.314  1.00  0.00    +0.000 G0
ENDBRANCH  22  23
ENDBRANCH   9  22
ENDBRANCH   1   4
BRANCH   1  25
ATOM     25  C   UNL     1       4.151  -0.969  -0.496  1.00  0.00    +0.275 C 
BRANCH  25  26
ATOM     26  C   UNL     1       5.558  -0.734   0.055  1.00  0.00    +0.161 C 
BRANCH  26  27
ATOM     27  C   UNL     1       5.487  -0.075   1.409  1.00  0.00    +0.223 C 
ATOM     28  N   UNL     1       6.578  -0.200   2.199  1.00  0.00    -0.369 N 
ATOM     29  O   UNL     1       4.499   0.583   1.734  1.00  0.00    -0.275 OA
ATOM     30  H   UNL     1       7.418  -0.709   1.946  1.00  0.00    +0.159 HD
ATOM     31  H   UNL     1       6.584   0.246   3.112  1.00  0.00    +0.159 HD
ENDBRANCH  26  27
ENDBRANCH  25  26
ENDBRANCH   1  25
TORSDOF 5
