REMARK SMILES CCC1=C2c3ccc([O-])cc3C3(CC3)[C@@H]2CCC(=O)O1
REMARK SMILES IDX 3 1 4 2 5 3 6 4 7 5 8 6 9 7 10 8 11 9 12 10 13 11 14 12
REMARK SMILES IDX 15 13 2 14 1 15 20 16 18 17 19 18 16 20 17 21
REMARK H PARENT
REMARK Flexibility Score:    7.900
ROOT
ATOM      1  C   UNL     1       1.499  -0.944  -0.788  1.00  0.00    +0.111 C 
ATOM      2  C   UNL     1       0.425  -0.211  -0.429  1.00  0.00    +0.002 C 
ATOM      3  C   UNL     1       0.317   1.171   0.097  1.00  0.00    -0.015 A 
ATOM      4  C   UNL     1       1.284   2.034   0.582  1.00  0.00    +0.008 A 
ATOM      5  C   UNL     1       0.900   3.296   1.062  1.00  0.00    -0.008 A 
ATOM      6  C   UNL     1      -0.435   3.747   1.096  1.00  0.00    -0.109 A 
ATOM      7  O   UNL     1      -0.758   4.898   1.538  1.00  0.00    -0.872 OA
ATOM      8  C   UNL     1      -1.383   2.825   0.613  1.00  0.00    -0.004 A 
ATOM      9  C   UNL     1      -1.033   1.558   0.127  1.00  0.00    -0.034 A 
ATOM     10  C   UNL     1      -1.926   0.468  -0.379  1.00  0.00    +0.003 C 
ATOM     11  C   UNL     1      -2.996   0.773  -1.406  1.00  0.00    +0.013 C 
ATOM     12  C   UNL     1      -3.389   0.341  -0.023  1.00  0.00    +0.013 C 
ATOM     13  C   UNL     1      -1.010  -0.740  -0.582  1.00  0.00    +0.034 C 
ENDROOT
BRANCH   1  14
ATOM     14  C   UNL     1       2.931  -0.488  -0.861  1.00  0.00    +0.072 C 
ATOM     15  C   UNL     1       3.714  -0.889   0.380  1.00  0.00    +0.012 C 
ENDBRANCH   1  14
BRANCH   1  16
ATOM     16  O   UNL     1       1.350  -2.287  -1.260  1.00  0.00    -0.431 OA
BRANCH  16  17
ATOM     17  C   UNL     1       0.517  -3.214  -0.697  1.00  0.00    +0.310 CG0
ATOM     18  O   UNL     1       0.327  -4.310  -1.221  1.00  0.00    -0.252 OA
ATOM     19  G   UNL     1      -0.125  -2.833   0.612  1.00  0.00    +0.000 G0
ENDBRANCH  16  17
ENDBRANCH   1  16
BRANCH  13  20
ATOM     20  C   UNL     1      -1.288  -1.866   0.426  1.00  0.00    +0.021 C 
BRANCH  20  21
ATOM     21  C   UNL     1      -0.125  -2.833   0.612  1.00  0.00    +0.124 CG0
ATOM     22  G   UNL     1       0.517  -3.214  -0.697  1.00  0.00    +0.000 G0
ENDBRANCH  20  21
ENDBRANCH  13  20
TORSDOF 1
