REMARK SMILES O=S(=O)(C1=CC=C[NH2+]C1)[NH+]1C=CC=C(c2ccccc2)O1
REMARK SMILES IDX 1 1 2 2 3 3 4 4 5 5 9 6 6 7 8 8 7 9 10 12 11 13 21 14 12 15
REMARK SMILES IDX 14 16 13 17 15 19 16 20 20 21 17 22 19 23 18 24
REMARK H PARENT 8 10 8 11 10 18
ROOT
ATOM      1  O   UNL     1      -1.662   1.608   2.063  1.00  0.00    -0.164 OA
ATOM      2  S   UNL     1      -1.770   1.923   0.658  1.00  0.00    +0.370 S 
ATOM      3  O   UNL     1      -2.761   2.841   0.150  1.00  0.00    -0.164 OA
ENDROOT
BRANCH   2   4
ATOM      4  C   UNL     1      -1.865   0.436  -0.224  1.00  0.00    +0.157 C 
ATOM      5  C   UNL     1      -1.979   0.424  -1.562  1.00  0.00    +0.033 C 
ATOM      6  C   UNL     1      -1.917  -0.834   0.559  1.00  0.00    +0.321 C 
ATOM      7  C   UNL     1      -2.190  -0.847  -2.224  1.00  0.00    +0.061 C 
ATOM      8  N   UNL     1      -1.560  -2.063  -0.261  1.00  0.00    -0.315 N 
ATOM      9  C   UNL     1      -2.047  -2.032  -1.610  1.00  0.00    +0.220 C 
ATOM     10  H   UNL     1      -1.914  -2.901   0.230  1.00  0.00    +0.352 HD
ATOM     11  H   UNL     1      -0.533  -2.188  -0.272  1.00  0.00    +0.352 HD
ENDBRANCH   2   4
BRANCH   2  12
ATOM     12  N   UNL     1      -0.335   2.752   0.247  1.00  0.00    -0.017 N 
ATOM     13  C   UNL     1       0.187   3.557   1.314  1.00  0.00    +0.286 C 
ATOM     14  O   UNL     1       0.638   1.878  -0.381  1.00  0.00    -0.295 OA
ATOM     15  C   UNL     1       1.225   3.076   2.013  1.00  0.00    +0.069 C 
ATOM     16  C   UNL     1       1.412   1.187   0.558  1.00  0.00    +0.199 C 
ATOM     17  C   UNL     1       1.749   1.765   1.722  1.00  0.00    +0.060 C 
ATOM     18  H   UNL     1      -0.708   3.384  -0.472  1.00  0.00    +0.427 HD
BRANCH  16  19
ATOM     19  C   UNL     1       1.777  -0.186   0.161  1.00  0.00    +0.024 A 
ATOM     20  C   UNL     1       1.924  -0.521  -1.195  1.00  0.00    +0.012 A 
ATOM     21  C   UNL     1       1.899  -1.211   1.115  1.00  0.00    +0.012 A 
ATOM     22  C   UNL     1       2.186  -1.838  -1.584  1.00  0.00    +0.001 A 
ATOM     23  C   UNL     1       2.163  -2.527   0.724  1.00  0.00    +0.001 A 
ATOM     24  C   UNL     1       2.302  -2.840  -0.625  1.00  0.00    +0.000 A 
ENDBRANCH  16  19
ENDBRANCH   2  12
TORSDOF 3
