REMARK SMILES Cc1ccccc1NC(=O)Nc1ccccc1C(N)=O
REMARK SMILES IDX 12 1 13 2 14 3 15 4 16 5 17 6 11 7 8 8 9 9 10 10 7 13 2 14
REMARK SMILES IDX 3 15 4 16 6 17 5 18 1 19 18 20 19 21 20 22
REMARK H PARENT 8 11 11 12 19 23 19 24
ROOT
ATOM      1  C   UNL     1      -2.358   0.107   0.303  1.00  0.00    +0.055 A 
ATOM      2  C   UNL     1      -2.838   1.028   1.242  1.00  0.00    +0.027 A 
ATOM      3  C   UNL     1      -4.207   1.143   1.501  1.00  0.00    +0.002 A 
ATOM      4  C   UNL     1      -5.118   0.334   0.831  1.00  0.00    +0.001 A 
ATOM      5  C   UNL     1      -4.665  -0.587  -0.112  1.00  0.00    +0.016 A 
ATOM      6  C   UNL     1      -3.292  -0.698  -0.398  1.00  0.00    +0.063 A 
ENDROOT
BRANCH   1   7
ATOM      7  N   UNL     1      -0.976  -0.057   0.043  1.00  0.00    -0.307 N 
ATOM      8  N   UNL     1       1.290   0.100   0.085  1.00  0.00    -0.307 N 
ATOM      9  C   UNL     1       0.102   0.657   0.540  1.00  0.00    +0.323 C 
ATOM     10  O   UNL     1       0.012   1.635   1.270  1.00  0.00    -0.248 OA
ATOM     11  H   UNL     1       1.187  -0.741  -0.461  1.00  0.00    +0.171 HD
ATOM     12  H   UNL     1      -0.762  -0.810  -0.608  1.00  0.00    +0.171 HD
BRANCH   8  13
ATOM     13  C   UNL     1       2.615   0.538   0.314  1.00  0.00    +0.045 A 
ATOM     14  C   UNL     1       3.682  -0.218  -0.225  1.00  0.00    -0.027 A 
ATOM     15  C   UNL     1       5.007   0.204  -0.010  1.00  0.00    +0.005 A 
ATOM     16  C   UNL     1       5.281   1.356   0.725  1.00  0.00    +0.000 A 
ATOM     17  C   UNL     1       2.911   1.693   1.047  1.00  0.00    +0.026 A 
ATOM     18  C   UNL     1       4.233   2.099   1.252  1.00  0.00    +0.002 A 
ATOM     19  C   UNL     1       3.458  -1.472  -1.027  1.00  0.00    +0.046 C 
ENDBRANCH   8  13
ENDBRANCH   1   7
BRANCH   6  20
ATOM     20  C   UNL     1      -2.820  -1.671  -1.433  1.00  0.00    +0.250 C 
ATOM     21  N   UNL     1      -3.705  -2.079  -2.392  1.00  0.00    -0.366 N 
ATOM     22  O   UNL     1      -1.659  -2.070  -1.461  1.00  0.00    -0.269 OA
ATOM     23  H   UNL     1      -4.639  -1.714  -2.503  1.00  0.00    +0.159 HD
ATOM     24  H   UNL     1      -3.366  -2.728  -3.090  1.00  0.00    +0.159 HD
ENDBRANCH   6  20
TORSDOF 3
