REMARK SMILES O=C([O-])c1cnc(C(=O)[O-])c(-c2ccccc2)c1
REMARK SMILES IDX 4 1 5 2 6 3 7 4 11 5 18 6 2 7 1 8 3 9 12 10 13 11 17 12
REMARK SMILES IDX 14 13 16 14 15 15 8 16 9 17 10 18
REMARK H PARENT
ROOT
ATOM      1  C   UNL     1      -2.600  -0.895   0.785  1.00  0.00    +0.016 A 
ATOM      2  C   UNL     1      -3.207   0.338   0.619  1.00  0.00    +0.121 A 
ATOM      3  N   UNL     1      -2.571   1.465   0.212  1.00  0.00    -0.254 NA
ATOM      4  C   UNL     1      -1.220   1.382  -0.056  1.00  0.00    +0.094 A 
ATOM      5  C   UNL     1      -0.503   0.175   0.073  1.00  0.00    +0.010 A 
ATOM      6  C   UNL     1      -1.230  -0.958   0.500  1.00  0.00    +0.022 A 
ENDROOT
BRANCH   1   7
ATOM      7  C   UNL     1      -3.382  -2.092   1.246  1.00  0.00    +0.073 C 
ATOM      8  O   UNL     1      -4.628  -1.937   1.458  1.00  0.00    -0.545 OA
ATOM      9  O   UNL     1      -2.748  -3.186   1.399  1.00  0.00    -0.545 OA
ENDBRANCH   1   7
BRANCH   5  10
ATOM     10  C   UNL     1       0.937   0.031  -0.215  1.00  0.00    -0.016 A 
ATOM     11  C   UNL     1       1.465   0.318  -1.483  1.00  0.00    +0.009 A 
ATOM     12  C   UNL     1       1.823  -0.435   0.772  1.00  0.00    +0.009 A 
ATOM     13  C   UNL     1       2.827   0.155  -1.754  1.00  0.00    +0.001 A 
ATOM     14  C   UNL     1       3.184  -0.604   0.504  1.00  0.00    +0.001 A 
ATOM     15  C   UNL     1       3.686  -0.309  -0.761  1.00  0.00    +0.000 A 
ENDBRANCH   5  10
BRANCH   4  16
ATOM     16  C   UNL     1      -0.488   2.657  -0.488  1.00  0.00    +0.091 C 
ATOM     17  O   UNL     1      -0.513   2.959  -1.731  1.00  0.00    -0.543 OA
ATOM     18  O   UNL     1       0.117   3.329   0.415  1.00  0.00    -0.543 OA
ENDBRANCH   4  16
TORSDOF 3
