REMARK SMILES O=C([O-])c1ccc2c(c1)C=C[NH2+]c1ccccc1-2
REMARK SMILES IDX 4 1 5 2 6 3 7 4 8 5 9 6 10 7 11 8 12 9 13 10 14 11 15 12
REMARK SMILES IDX 16 13 17 14 18 15 2 18 1 19 3 20
REMARK H PARENT 12 16 12 17
ROOT
ATOM      1  C   UNL     1       3.250  -0.034   0.027  1.00  0.00    -0.002 A 
ATOM      2  C   UNL     1       2.698  -1.124   0.705  1.00  0.00    +0.010 A 
ATOM      3  C   UNL     1       1.317  -1.336   0.714  1.00  0.00    +0.010 A 
ATOM      4  C   UNL     1       0.437  -0.462   0.048  1.00  0.00    -0.005 A 
ATOM      5  C   UNL     1       1.000   0.643  -0.643  1.00  0.00    -0.012 A 
ATOM      6  C   UNL     1       2.389   0.831  -0.658  1.00  0.00    +0.019 A 
ATOM      7  C   UNL     1       0.208   1.662  -1.358  1.00  0.00    +0.068 C 
ATOM      8  C   UNL     1      -0.927   2.199  -0.892  1.00  0.00    +0.226 C 
ATOM      9  N   UNL     1      -1.419   1.750   0.367  1.00  0.00    -0.287 N 
ATOM     10  C   UNL     1      -1.935   0.378   0.302  1.00  0.00    +0.142 A 
ATOM     11  C   UNL     1      -3.316   0.174   0.394  1.00  0.00    +0.069 A 
ATOM     12  C   UNL     1      -3.822  -1.121   0.311  1.00  0.00    +0.006 A 
ATOM     13  C   UNL     1      -2.954  -2.195   0.131  1.00  0.00    +0.001 A 
ATOM     14  C   UNL     1      -1.574  -1.983   0.039  1.00  0.00    +0.015 A 
ATOM     15  C   UNL     1      -1.029  -0.691   0.130  1.00  0.00    +0.044 A 
ATOM     16  H   UNL     1      -2.135   2.373   0.753  1.00  0.00    +0.357 HD
ATOM     17  H   UNL     1      -0.656   1.744   1.066  1.00  0.00    +0.357 HD
ENDROOT
BRANCH   1  18
ATOM     18  C   UNL     1       4.741   0.230   0.048  1.00  0.00    +0.072 C 
ATOM     19  O   UNL     1       5.462  -0.608   0.668  1.00  0.00    -0.545 OA
ATOM     20  O   UNL     1       5.134   1.281  -0.546  1.00  0.00    -0.545 OA
ENDBRANCH   1  18
TORSDOF 1
