REMARK SMILES COc1ccccc1C(=O)Nc1cc(F)c(C#N)cc1C
REMARK SMILES IDX 3 1 4 2 5 3 6 4 7 5 8 6 2 7 1 8 9 9 10 10 11 11 12 13 13 14
REMARK SMILES IDX 20 15 14 16 19 17 16 18 17 19 18 20 21 21 15 22
REMARK H PARENT 11 12
ROOT
ATOM      1  C   UNL     1      -2.558   0.032   0.002  1.00  0.00    +0.131 A 
ATOM      2  C   UNL     1      -3.960   0.118  -0.029  1.00  0.00    +0.047 A 
ATOM      3  C   UNL     1      -4.751  -1.033  -0.043  1.00  0.00    +0.004 A 
ATOM      4  C   UNL     1      -4.156  -2.286  -0.026  1.00  0.00    +0.001 A 
ATOM      5  C   UNL     1      -2.767  -2.389   0.004  1.00  0.00    +0.018 A 
ATOM      6  C   UNL     1      -1.947  -1.242   0.019  1.00  0.00    +0.082 A 
ENDROOT
BRANCH   1   7
ATOM      7  O   UNL     1      -1.741   1.137   0.017  1.00  0.00    -0.496 OA
ATOM      8  C   UNL     1      -2.358   2.422  -0.000  1.00  0.00    +0.278 C 
ENDBRANCH   1   7
BRANCH   6   9
ATOM      9  C   UNL     1      -0.460  -1.495   0.052  1.00  0.00    +0.259 C 
ATOM     10  O   UNL     1      -0.069  -2.659   0.064  1.00  0.00    -0.269 OA
ATOM     11  N   UNL     1       0.363  -0.385   0.067  1.00  0.00    -0.322 N 
ATOM     12  H   UNL     1      -0.127   0.503   0.054  1.00  0.00    +0.170 HD
BRANCH  11  13
ATOM     13  C   UNL     1       1.776  -0.333   0.097  1.00  0.00    +0.047 A 
ATOM     14  C   UNL     1       2.570  -1.485   0.118  1.00  0.00    +0.067 A 
ATOM     15  C   UNL     1       2.410   0.931   0.108  1.00  0.00    -0.026 A 
ATOM     16  C   UNL     1       3.961  -1.391   0.148  1.00  0.00    +0.143 A 
ATOM     17  C   UNL     1       3.817   1.005   0.138  1.00  0.00    +0.028 A 
ATOM     18  C   UNL     1       4.594  -0.156   0.158  1.00  0.00    +0.088 A 
ATOM     19  C   UNL     1       6.021  -0.072   0.189  1.00  0.00    +0.102 C 
ATOM     20  N   UNL     1       7.176   0.040   0.214  1.00  0.00    -0.192 NA
ATOM     21  C   UNL     1       1.632   2.221   0.087  1.00  0.00    +0.046 C 
ATOM     22  F   UNL     1       4.683  -2.521   0.167  1.00  0.00    -0.205 F 
ENDBRANCH  11  13
ENDBRANCH   6   9
TORSDOF 3
