REMARK SMILES O=C(NCc1cccc(C(F)(F)F)c1)Nc1cccc(-c2cn3ccnc3c(NCc3ccncc3)n2)c1
REMARK SMILES IDX 1 1 2 2 3 3 15 4 4 7 5 8 6 9 14 10 7 11 9 12 8 13 10 14
REMARK SMILES IDX 11 15 12 16 13 17 16 18 17 19 38 20 18 21 20 22 19 23 21 24
REMARK SMILES IDX 22 25 37 26 23 27 28 28 24 29 27 30 29 31 25 32 26 33 30 35
REMARK SMILES IDX 31 36 32 37 36 38 33 39 35 40 34 41
REMARK H PARENT 3 5 15 6 29 34
ROOT
ATOM      1  O   UNL     1      -3.754   1.718  -2.550  1.00  0.00    -0.248 OA
ATOM      2  C   UNL     1      -3.618   1.128  -1.487  1.00  0.00    +0.319 C 
ATOM      3  N   UNL     1      -4.663   0.980  -0.604  1.00  0.00    -0.334 N 
ATOM      4  N   UNL     1      -2.472   0.532  -1.010  1.00  0.00    -0.308 N 
ATOM      5  H   UNL     1      -4.513   0.574   0.305  1.00  0.00    +0.165 HD
ATOM      6  H   UNL     1      -2.565   0.033  -0.140  1.00  0.00    +0.171 HD
ENDROOT
BRANCH   3   7
ATOM      7  C   UNL     1      -5.966   1.518  -0.912  1.00  0.00    +0.153 C 
BRANCH   7   8
ATOM      8  C   UNL     1      -6.961   1.142   0.154  1.00  0.00    -0.028 A 
ATOM      9  C   UNL     1      -7.196   1.995   1.241  1.00  0.00    +0.005 A 
ATOM     10  C   UNL     1      -7.629  -0.091   0.100  1.00  0.00    +0.018 A 
ATOM     11  C   UNL     1      -8.092   1.631   2.245  1.00  0.00    +0.001 A 
ATOM     12  C   UNL     1      -8.540  -0.465   1.102  1.00  0.00    +0.056 A 
ATOM     13  C   UNL     1      -8.759   0.407   2.178  1.00  0.00    +0.013 A 
BRANCH  12  14
ATOM     14  C   UNL     1      -9.237  -1.802   1.039  1.00  0.00    +0.416 C 
ATOM     15  F   UNL     1      -9.547  -2.182  -0.232  1.00  0.00    -0.166 F 
ATOM     16  F   UNL     1     -10.409  -1.833   1.732  1.00  0.00    -0.166 F 
ATOM     17  F   UNL     1      -8.472  -2.805   1.552  1.00  0.00    -0.166 F 
ENDBRANCH  12  14
ENDBRANCH   7   8
ENDBRANCH   3   7
BRANCH   4  18
ATOM     18  C   UNL     1      -1.195   0.513  -1.609  1.00  0.00    +0.043 A 
ATOM     19  C   UNL     1      -0.882   1.172  -2.798  1.00  0.00    +0.026 A 
ATOM     20  C   UNL     1      -0.188  -0.208  -0.948  1.00  0.00    +0.036 A 
ATOM     21  C   UNL     1       0.414   1.122  -3.315  1.00  0.00    +0.003 A 
ATOM     22  C   UNL     1       1.116  -0.280  -1.466  1.00  0.00    +0.004 A 
ATOM     23  C   UNL     1       1.408   0.405  -2.651  1.00  0.00    +0.010 A 
BRANCH  22  24
ATOM     24  C   UNL     1       2.185  -1.035  -0.776  1.00  0.00    +0.089 C 
ATOM     25  C   UNL     1       1.959  -2.311  -0.398  1.00  0.00    +0.122 C 
ATOM     26  N   UNL     1       3.400  -0.388  -0.582  1.00  0.00    -0.226 NA
ATOM     27  N   UNL     1       2.980  -2.994   0.226  1.00  0.00    -0.302 N 
ATOM     28  C   UNL     1       4.387  -1.021   0.012  1.00  0.00    +0.170 C 
ATOM     29  C   UNL     1       3.072  -4.265   0.722  1.00  0.00    +0.113 A 
ATOM     30  C   UNL     1       4.187  -2.392   0.449  1.00  0.00    +0.180 A 
ATOM     31  N   UNL     1       5.591  -0.395   0.216  1.00  0.00    -0.363 N 
ATOM     32  C   UNL     1       4.352  -4.359   1.229  1.00  0.00    +0.132 A 
ATOM     33  N   UNL     1       5.045  -3.184   1.057  1.00  0.00    -0.234 NA
ATOM     34  H   UNL     1       6.315  -0.934   0.680  1.00  0.00    +0.162 HD
BRANCH  31  35
ATOM     35  C   UNL     1       5.875   0.957  -0.177  1.00  0.00    +0.150 C 
BRANCH  35  36
ATOM     36  C   UNL     1       7.291   1.305   0.204  1.00  0.00    -0.026 A 
ATOM     37  C   UNL     1       8.351   1.043  -0.668  1.00  0.00    +0.025 A 
ATOM     38  C   UNL     1       7.580   1.853   1.458  1.00  0.00    +0.025 A 
ATOM     39  C   UNL     1       9.639   1.356  -0.262  1.00  0.00    +0.111 A 
ATOM     40  C   UNL     1       8.901   2.131   1.772  1.00  0.00    +0.111 A 
ATOM     41  N   UNL     1       9.936   1.898   0.938  1.00  0.00    -0.265 NA
ENDBRANCH  35  36
ENDBRANCH  31  35
ENDBRANCH  22  24
ENDBRANCH   4  18
TORSDOF 7
