REMARK SMILES C[NH+](C)CC(=O)Nc1cccc(-c2cnn3c(-c4cccc(NC(=O)c5cccc(C(F)(F)F)c5)c4)ccnc23)c1
REMARK SMILES IDX 13 1 14 2 15 3 16 4 17 5 37 6 38 7 39 8 40 9 12 10 8 11 9 12
REMARK SMILES IDX 41 13 10 14 11 15 7 16 5 17 6 18 4 20 2 21 1 22 3 23 18 25
REMARK SMILES IDX 19 26 36 27 20 28 22 29 21 30 23 31 24 32 25 33 26 35 27 36
REMARK SMILES IDX 35 37 28 38 30 39 29 40 31 41 32 42 33 43 34 44
REMARK H PARENT 7 19 2 24 23 34
ROOT
ATOM      1  C   UNL     1      -1.396  -0.762  -2.034  1.00  0.00    +0.047 A 
ATOM      2  C   UNL     1      -0.560  -1.746  -2.599  1.00  0.00    +0.146 A 
ATOM      3  N   UNL     1       0.361  -2.204  -1.757  1.00  0.00    -0.174 NA
ATOM      4  N   UNL     1       0.169  -1.495  -0.611  1.00  0.00    -0.214 N 
ATOM      5  C   UNL     1       0.910  -1.557   0.587  1.00  0.00    +0.076 C 
ATOM      6  C   UNL     1       0.547  -0.769   1.617  1.00  0.00    +0.049 C 
ATOM      7  C   UNL     1      -0.622   0.112   1.386  1.00  0.00    +0.116 C 
ATOM      8  N   UNL     1      -1.328   0.191   0.301  1.00  0.00    -0.236 NA
ATOM      9  C   UNL     1      -0.928  -0.617  -0.737  1.00  0.00    +0.163 A 
ENDROOT
BRANCH   1  10
ATOM     10  C   UNL     1      -2.491  -0.019  -2.644  1.00  0.00    -0.011 A 
ATOM     11  C   UNL     1      -4.633   1.157  -2.474  1.00  0.00    +0.042 A 
ATOM     12  C   UNL     1      -4.597   1.408  -3.845  1.00  0.00    +0.026 A 
ATOM     13  C   UNL     1      -3.581   0.438  -1.886  1.00  0.00    +0.035 A 
ATOM     14  C   UNL     1      -3.524   0.953  -4.614  1.00  0.00    +0.003 A 
ATOM     15  C   UNL     1      -2.478   0.246  -4.019  1.00  0.00    +0.009 A 
BRANCH  11  16
ATOM     16  N   UNL     1      -5.667   1.590  -1.613  1.00  0.00    -0.321 N 
ATOM     17  C   UNL     1      -6.793   2.304  -1.962  1.00  0.00    +0.279 C 
ATOM     18  O   UNL     1      -7.125   2.692  -3.082  1.00  0.00    -0.268 OA
ATOM     19  H   UNL     1      -5.525   1.345  -0.638  1.00  0.00    +0.170 HD
BRANCH  17  20
ATOM     20  C   UNL     1      -7.717   2.633  -0.785  1.00  0.00    +0.363 C 
BRANCH  20  21
ATOM     21  N   UNL     1      -9.091   3.076  -1.292  1.00  0.00    -0.332 N 
ATOM     22  C   UNL     1      -9.786   4.021  -0.368  1.00  0.00    +0.332 C 
ATOM     23  C   UNL     1      -9.955   1.920  -1.703  1.00  0.00    +0.332 C 
ATOM     24  H   UNL     1      -8.877   3.583  -2.171  1.00  0.00    +0.348 HD
ENDBRANCH  20  21
ENDBRANCH  17  20
ENDBRANCH  11  16
ENDBRANCH   1  10
BRANCH   5  25
ATOM     25  C   UNL     1       2.073  -2.458   0.755  1.00  0.00    +0.002 A 
ATOM     26  C   UNL     1       1.972  -3.822   0.455  1.00  0.00    +0.010 A 
ATOM     27  C   UNL     1       3.303  -1.956   1.218  1.00  0.00    +0.036 A 
ATOM     28  C   UNL     1       3.073  -4.663   0.612  1.00  0.00    +0.003 A 
ATOM     29  C   UNL     1       4.411  -2.793   1.388  1.00  0.00    +0.042 A 
ATOM     30  C   UNL     1       4.285  -4.151   1.076  1.00  0.00    +0.026 A 
BRANCH  29  31
ATOM     31  N   UNL     1       5.667  -2.352   1.859  1.00  0.00    -0.322 N 
ATOM     32  C   UNL     1       6.013  -1.073   2.255  1.00  0.00    +0.255 C 
ATOM     33  O   UNL     1       5.299  -0.077   2.235  1.00  0.00    -0.269 OA
ATOM     34  H   UNL     1       6.394  -3.055   1.877  1.00  0.00    +0.170 HD
BRANCH  32  35
ATOM     35  C   UNL     1       7.418  -0.916   2.728  1.00  0.00    +0.040 A 
ATOM     36  C   UNL     1       8.060  -1.909   3.478  1.00  0.00    +0.014 A 
ATOM     37  C   UNL     1       8.089   0.279   2.436  1.00  0.00    +0.027 A 
ATOM     38  C   UNL     1       9.373  -1.715   3.910  1.00  0.00    +0.001 A 
ATOM     39  C   UNL     1       9.412   0.479   2.860  1.00  0.00    +0.056 A 
ATOM     40  C   UNL     1      10.045  -0.530   3.603  1.00  0.00    +0.013 A 
BRANCH  39  41
ATOM     41  C   UNL     1      10.122   1.777   2.557  1.00  0.00    +0.416 C 
ATOM     42  F   UNL     1       9.781   2.298   1.346  1.00  0.00    -0.166 F 
ATOM     43  F   UNL     1       9.847   2.743   3.475  1.00  0.00    -0.166 F 
ATOM     44  F   UNL     1      11.478   1.652   2.538  1.00  0.00    -0.166 F 
ENDBRANCH  39  41
ENDBRANCH  32  35
ENDBRANCH  29  31
ENDBRANCH   5  25
TORSDOF 8
