REMARK SMILES O=C(Nc1ccc(-c2cn3ccnc3c(NCc3ccncc3)n2)cc1)Nc1cccc(C(F)(F)F)c1
REMARK SMILES IDX 4 1 5 2 6 3 7 4 25 5 26 6 3 7 1 8 2 9 27 10 28 13 29 14
REMARK SMILES IDX 37 15 30 16 32 17 31 18 33 19 34 20 35 21 36 22 8 23 9 24
REMARK SMILES IDX 24 25 10 26 15 27 11 28 14 29 16 30 12 31 13 32 17 34 18 35
REMARK SMILES IDX 19 36 23 37 20 38 22 39 21 40
REMARK H PARENT 3 11 27 12 16 33
ROOT
ATOM      1  C   UNL     1       1.882  -0.420   0.311  1.00  0.00    +0.042 A 
ATOM      2  C   UNL     1       1.691   0.951   0.141  1.00  0.00    +0.027 A 
ATOM      3  C   UNL     1       0.431   1.528   0.356  1.00  0.00    +0.012 A 
ATOM      4  C   UNL     1      -0.663   0.748   0.753  1.00  0.00    +0.002 A 
ATOM      5  C   UNL     1      -0.468  -0.630   0.904  1.00  0.00    +0.012 A 
ATOM      6  C   UNL     1       0.789  -1.207   0.688  1.00  0.00    +0.027 A 
ENDROOT
BRANCH   1   7
ATOM      7  N   UNL     1       3.113  -1.080   0.112  1.00  0.00    -0.308 N 
ATOM      8  O   UNL     1       4.559   0.691  -0.268  1.00  0.00    -0.248 OA
ATOM      9  C   UNL     1       4.342  -0.511  -0.193  1.00  0.00    +0.323 C 
ATOM     10  N   UNL     1       5.294  -1.501  -0.402  1.00  0.00    -0.308 N 
ATOM     11  H   UNL     1       3.100  -2.077   0.254  1.00  0.00    +0.171 HD
ATOM     12  H   UNL     1       4.957  -2.450  -0.417  1.00  0.00    +0.171 HD
BRANCH  10  13
ATOM     13  C   UNL     1       6.672  -1.336  -0.658  1.00  0.00    +0.043 A 
ATOM     14  C   UNL     1       7.416  -2.496  -0.906  1.00  0.00    +0.026 A 
ATOM     15  C   UNL     1       7.326  -0.102  -0.669  1.00  0.00    +0.039 A 
ATOM     16  C   UNL     1       8.786  -2.424  -1.169  1.00  0.00    +0.003 A 
ATOM     17  C   UNL     1       8.707  -0.015  -0.926  1.00  0.00    +0.058 A 
ATOM     18  C   UNL     1       9.428  -1.189  -1.183  1.00  0.00    +0.013 A 
BRANCH  17  19
ATOM     19  C   UNL     1       9.384   1.333  -0.949  1.00  0.00    +0.416 C 
ATOM     20  F   UNL     1       9.027   2.126   0.099  1.00  0.00    -0.166 F 
ATOM     21  F   UNL     1       9.095   2.042  -2.075  1.00  0.00    -0.166 F 
ATOM     22  F   UNL     1      10.744   1.252  -0.902  1.00  0.00    -0.166 F 
ENDBRANCH  17  19
ENDBRANCH  10  13
ENDBRANCH   1   7
BRANCH   4  23
ATOM     23  C   UNL     1      -2.006   1.332   0.981  1.00  0.00    +0.089 C 
ATOM     24  C   UNL     1      -2.126   2.503   1.640  1.00  0.00    +0.122 C 
ATOM     25  N   UNL     1      -3.102   0.606   0.523  1.00  0.00    -0.226 NA
ATOM     26  N   UNL     1      -3.390   3.009   1.848  1.00  0.00    -0.302 N 
ATOM     27  C   UNL     1      -4.317   1.072   0.708  1.00  0.00    +0.170 C 
ATOM     28  C   UNL     1      -3.841   4.145   2.463  1.00  0.00    +0.113 A 
ATOM     29  C   UNL     1      -4.492   2.336   1.402  1.00  0.00    +0.180 A 
ATOM     30  N   UNL     1      -5.407   0.374   0.252  1.00  0.00    -0.363 N 
ATOM     31  C   UNL     1      -5.215   4.093   2.349  1.00  0.00    +0.132 A 
ATOM     32  N   UNL     1      -5.618   2.959   1.684  1.00  0.00    -0.234 NA
ATOM     33  H   UNL     1      -6.319   0.789   0.420  1.00  0.00    +0.162 HD
BRANCH  30  34
ATOM     34  C   UNL     1      -5.329  -0.867  -0.466  1.00  0.00    +0.150 C 
BRANCH  34  35
ATOM     35  C   UNL     1      -6.718  -1.345  -0.801  1.00  0.00    -0.026 A 
ATOM     36  C   UNL     1      -7.443  -2.125   0.105  1.00  0.00    +0.025 A 
ATOM     37  C   UNL     1      -7.331  -0.977  -2.003  1.00  0.00    +0.025 A 
ATOM     38  C   UNL     1      -8.727  -2.519  -0.238  1.00  0.00    +0.111 A 
ATOM     39  C   UNL     1      -8.619  -1.421  -2.254  1.00  0.00    +0.111 A 
ATOM     40  N   UNL     1      -9.330  -2.188  -1.399  1.00  0.00    -0.265 NA
ENDBRANCH  34  35
ENDBRANCH  30  34
ENDBRANCH   4  23
TORSDOF 6
