REMARK SMILES COCCNc1cc(-n2c(Nc3cc(NC(=O)c4cccc(C(F)(F)F)c4)ccc3C)nc3ccccc32)ncn1
REMARK SMILES IDX 9 1 10 2 32 3 33 4 34 5 35 6 36 7 37 8 38 9 8 10 6 11 7 12
REMARK SMILES IDX 41 13 40 14 39 15 5 16 4 18 3 19 2 20 1 21 11 22 12 24 13 25
REMARK SMILES IDX 30 26 14 27 29 28 28 29 31 30 15 31 16 32 17 33 18 35 19 36
REMARK SMILES IDX 27 37 20 38 22 39 21 40 23 41 24 42 25 43 26 44
REMARK H PARENT 5 17 11 23 15 34
ROOT
ATOM      1  N   UNL     1       1.763   0.605  -0.291  1.00  0.00    -0.262 N 
ATOM      2  C   UNL     1       0.448   0.109  -0.221  1.00  0.00    +0.214 A 
ATOM      3  N   UNL     1      -0.219   0.402  -1.317  1.00  0.00    -0.212 NA
ATOM      4  C   UNL     1       0.671   0.988  -2.165  1.00  0.00    +0.091 A 
ATOM      5  C   UNL     1       0.456   1.433  -3.480  1.00  0.00    +0.031 A 
ATOM      6  C   UNL     1       1.531   1.941  -4.211  1.00  0.00    +0.002 A 
ATOM      7  C   UNL     1       2.804   1.987  -3.649  1.00  0.00    +0.002 A 
ATOM      8  C   UNL     1       3.034   1.554  -2.337  1.00  0.00    +0.029 A 
ATOM      9  C   UNL     1       1.935   1.090  -1.589  1.00  0.00    +0.076 A 
ENDROOT
BRANCH   1  10
ATOM     10  C   UNL     1       2.710   0.594   0.789  1.00  0.00    +0.145 A 
ATOM     11  C   UNL     1       4.655   1.403   1.866  1.00  0.00    +0.131 A 
ATOM     12  C   UNL     1       3.774   1.475   0.802  1.00  0.00    +0.094 A 
ATOM     13  N   UNL     1       4.472   0.535   2.870  1.00  0.00    -0.219 NA
ATOM     14  C   UNL     1       3.398  -0.258   2.796  1.00  0.00    +0.226 A 
ATOM     15  N   UNL     1       2.493  -0.272   1.809  1.00  0.00    -0.218 NA
BRANCH  11  16
ATOM     16  N   UNL     1       5.706   2.305   1.920  1.00  0.00    -0.368 N 
ATOM     17  H   UNL     1       6.156   2.530   1.039  1.00  0.00    +0.162 HD
BRANCH  16  18
ATOM     18  C   UNL     1       6.616   2.297   3.060  1.00  0.00    +0.143 C 
BRANCH  18  19
ATOM     19  C   UNL     1       7.701   1.226   2.893  1.00  0.00    +0.181 C 
BRANCH  19  20
ATOM     20  O   UNL     1       8.490   1.532   1.733  1.00  0.00    -0.383 OA
ATOM     21  C   UNL     1       9.497   0.552   1.519  1.00  0.00    +0.194 C 
ENDBRANCH  19  20
ENDBRANCH  18  19
ENDBRANCH  16  18
ENDBRANCH  11  16
ENDBRANCH   1  10
BRANCH   2  22
ATOM     22  N   UNL     1       0.004  -0.538   0.890  1.00  0.00    -0.325 N 
ATOM     23  H   UNL     1       0.698  -0.697   1.619  1.00  0.00    +0.170 HD
BRANCH  22  24
ATOM     24  C   UNL     1      -1.279  -1.048   1.190  1.00  0.00    +0.046 A 
ATOM     25  C   UNL     1      -2.387  -0.847   0.350  1.00  0.00    +0.052 A 
ATOM     26  C   UNL     1      -1.477  -1.805   2.368  1.00  0.00    -0.027 A 
ATOM     27  C   UNL     1      -3.659  -1.363   0.643  1.00  0.00    +0.043 A 
ATOM     28  C   UNL     1      -2.752  -2.320   2.661  1.00  0.00    +0.008 A 
ATOM     29  C   UNL     1      -3.832  -2.103   1.805  1.00  0.00    +0.026 A 
ATOM     30  C   UNL     1      -0.358  -2.086   3.336  1.00  0.00    +0.046 C 
BRANCH  27  31
ATOM     31  N   UNL     1      -4.688  -1.096  -0.286  1.00  0.00    -0.322 N 
ATOM     32  C   UNL     1      -6.018  -1.460  -0.197  1.00  0.00    +0.255 C 
ATOM     33  O   UNL     1      -6.571  -2.012   0.746  1.00  0.00    -0.269 OA
ATOM     34  H   UNL     1      -4.406  -0.542  -1.085  1.00  0.00    +0.170 HD
BRANCH  32  35
ATOM     35  C   UNL     1      -6.848  -1.093  -1.381  1.00  0.00    +0.040 A 
ATOM     36  C   UNL     1      -8.177  -0.711  -1.169  1.00  0.00    +0.014 A 
ATOM     37  C   UNL     1      -6.342  -1.155  -2.687  1.00  0.00    +0.027 A 
ATOM     38  C   UNL     1      -8.990  -0.367  -2.249  1.00  0.00    +0.001 A 
ATOM     39  C   UNL     1      -7.152  -0.803  -3.781  1.00  0.00    +0.056 A 
ATOM     40  C   UNL     1      -8.480  -0.412  -3.548  1.00  0.00    +0.013 A 
BRANCH  39  41
ATOM     41  C   UNL     1      -6.613  -0.890  -5.189  1.00  0.00    +0.416 C 
ATOM     42  F   UNL     1      -5.289  -0.580  -5.265  1.00  0.00    -0.166 F 
ATOM     43  F   UNL     1      -6.738  -2.138  -5.715  1.00  0.00    -0.166 F 
ATOM     44  F   UNL     1      -7.241  -0.050  -6.058  1.00  0.00    -0.166 F 
ENDBRANCH  39  41
ENDBRANCH  32  35
ENDBRANCH  27  31
ENDBRANCH  22  24
ENDBRANCH   2  22
TORSDOF 10
