REMARK SMILES C[NH+]1CC[NH+](CCCC#Cc2cnn3c(-c4cccc(NC(=O)c5cccc(C(F)(F)F)c5)c4)ccnc23)CC1
REMARK SMILES IDX 10 1 11 2 12 3 13 4 14 5 15 6 35 7 36 8 37 9 38 10 9 11 8 12
REMARK SMILES IDX 7 13 6 14 5 15 2 16 3 17 40 18 4 19 39 20 1 21 16 24 17 25
REMARK SMILES IDX 34 26 18 27 20 28 19 29 21 30 22 31 23 32 24 34 25 35 33 36
REMARK SMILES IDX 26 37 28 38 27 39 29 40 30 41 31 42 32 43
REMARK H PARENT 2 22 5 23 21 33
ROOT
ATOM      1  C   UNL     1      -3.781  -2.804   1.157  1.00  0.00    -0.061 C 
ATOM      2  C   UNL     1      -2.444  -2.796   1.628  1.00  0.00    +0.089 A 
ATOM      3  C   UNL     1      -1.882  -1.960   2.597  1.00  0.00    +0.155 A 
ATOM      4  N   UNL     1      -0.552  -1.980   2.555  1.00  0.00    -0.173 NA
ATOM      5  N   UNL     1      -0.241  -3.016   1.720  1.00  0.00    -0.213 N 
ATOM      6  C   UNL     1       1.029  -3.490   1.344  1.00  0.00    +0.076 C 
ATOM      7  C   UNL     1       1.122  -4.502   0.461  1.00  0.00    +0.049 C 
ATOM      8  C   UNL     1      -0.164  -4.969  -0.122  1.00  0.00    +0.116 C 
ATOM      9  N   UNL     1      -1.338  -4.459   0.110  1.00  0.00    -0.236 NA
ATOM     10  C   UNL     1      -1.395  -3.504   1.088  1.00  0.00    +0.171 A 
ENDROOT
BRANCH   1  11
ATOM     11  C   UNL     1      -4.810  -2.619   0.568  1.00  0.00    -0.097 C 
ATOM     12  C   UNL     1      -5.952  -2.280  -0.284  1.00  0.00    +0.096 C 
BRANCH  12  13
ATOM     13  C   UNL     1      -5.486  -1.636  -1.601  1.00  0.00    +0.074 C 
BRANCH  13  14
ATOM     14  C   UNL     1      -4.905  -0.222  -1.469  1.00  0.00    +0.263 C 
BRANCH  14  15
ATOM     15  N   UNL     1      -3.444  -0.181  -1.005  1.00  0.00    -0.326 N 
ATOM     16  N   UNL     1      -0.651   0.835  -1.113  1.00  0.00    -0.328 N 
ATOM     17  C   UNL     1      -1.602   1.308  -0.034  1.00  0.00    +0.324 C 
ATOM     18  C   UNL     1      -0.980  -0.564  -1.594  1.00  0.00    +0.324 C 
ATOM     19  C   UNL     1      -3.079   1.220  -0.494  1.00  0.00    +0.324 C 
ATOM     20  C   UNL     1      -2.455  -0.692  -2.061  1.00  0.00    +0.324 C 
ATOM     21  C   UNL     1      -0.410   1.832  -2.214  1.00  0.00    +0.333 C 
ATOM     22  H   UNL     1       0.288   0.779  -0.642  1.00  0.00    +0.348 HD
ATOM     23  H   UNL     1      -3.380  -0.816  -0.199  1.00  0.00    +0.348 HD
ENDBRANCH  14  15
ENDBRANCH  13  14
ENDBRANCH  12  13
ENDBRANCH   1  11
BRANCH   6  24
ATOM     24  C   UNL     1       2.253  -2.781   1.751  1.00  0.00    +0.002 A 
ATOM     25  C   UNL     1       3.280  -3.384   2.475  1.00  0.00    +0.010 A 
ATOM     26  C   UNL     1       2.390  -1.440   1.345  1.00  0.00    +0.036 A 
ATOM     27  C   UNL     1       4.422  -2.647   2.794  1.00  0.00    +0.003 A 
ATOM     28  C   UNL     1       3.524  -0.698   1.655  1.00  0.00    +0.042 A 
ATOM     29  C   UNL     1       4.544  -1.313   2.387  1.00  0.00    +0.026 A 
BRANCH  28  30
ATOM     30  N   UNL     1       3.694   0.650   1.270  1.00  0.00    -0.322 N 
ATOM     31  C   UNL     1       2.836   1.429   0.518  1.00  0.00    +0.255 C 
ATOM     32  O   UNL     1       1.777   1.089  -0.016  1.00  0.00    -0.269 OA
ATOM     33  H   UNL     1       4.571   1.071   1.566  1.00  0.00    +0.170 HD
BRANCH  31  34
ATOM     34  C   UNL     1       3.282   2.835   0.327  1.00  0.00    +0.040 A 
ATOM     35  C   UNL     1       3.822   3.584   1.377  1.00  0.00    +0.014 A 
ATOM     36  C   UNL     1       3.103   3.423  -0.931  1.00  0.00    +0.027 A 
ATOM     37  C   UNL     1       4.194   4.912   1.160  1.00  0.00    +0.001 A 
ATOM     38  C   UNL     1       3.455   4.765  -1.151  1.00  0.00    +0.056 A 
ATOM     39  C   UNL     1       4.014   5.499  -0.096  1.00  0.00    +0.013 A 
BRANCH  38  40
ATOM     40  C   UNL     1       3.238   5.382  -2.512  1.00  0.00    +0.416 C 
ATOM     41  F   UNL     1       4.200   5.027  -3.402  1.00  0.00    -0.166 F 
ATOM     42  F   UNL     1       3.188   6.737  -2.500  1.00  0.00    -0.166 F 
ATOM     43  F   UNL     1       2.055   4.966  -3.057  1.00  0.00    -0.166 F 
ENDBRANCH  38  40
ENDBRANCH  31  34
ENDBRANCH  28  30
ENDBRANCH   6  24
TORSDOF 8
