REMARK SMILES O=C(Nc1cccc(-c2ccnc3c(C#CCCC[NH+]4CCOCC4)cnn23)c1)c1cccc(C(F)(F)F)c1
REMARK SMILES IDX 9 1 10 2 11 3 12 4 13 5 14 6 15 7 26 8 27 9 28 10 8 11 4 12
REMARK SMILES IDX 5 13 29 14 6 15 7 16 3 17 1 18 2 19 30 21 31 22 39 23 32 24
REMARK SMILES IDX 34 25 33 26 35 27 36 28 37 29 38 30 16 31 17 32 18 33 19 34
REMARK SMILES IDX 20 35 21 36 25 37 22 38 24 39 23 40
REMARK H PARENT 3 20 20 41
ROOT
ATOM      1  C   UNL     1       0.836   1.876   0.574  1.00  0.00    +0.076 C 
ATOM      2  C   UNL     1       0.670   1.767  -0.758  1.00  0.00    +0.049 C 
ATOM      3  C   UNL     1      -0.729   1.785  -1.252  1.00  0.00    +0.116 C 
ATOM      4  N   UNL     1      -1.807   1.895  -0.532  1.00  0.00    -0.236 NA
ATOM      5  C   UNL     1      -1.592   2.045   0.819  1.00  0.00    +0.171 A 
ATOM      6  C   UNL     1      -2.459   2.245   1.872  1.00  0.00    +0.089 A 
ATOM      7  C   UNL     1      -3.870   2.346   1.763  1.00  0.00    -0.061 C 
ATOM      8  C   UNL     1      -1.660   2.318   3.017  1.00  0.00    +0.155 A 
ATOM      9  N   UNL     1      -0.364   2.177   2.743  1.00  0.00    -0.173 NA
ATOM     10  N   UNL     1      -0.302   2.031   1.389  1.00  0.00    -0.213 N 
ENDROOT
BRANCH   1  11
ATOM     11  C   UNL     1       2.206   1.832   1.127  1.00  0.00    +0.002 A 
ATOM     12  C   UNL     1       4.361   0.695   1.322  1.00  0.00    +0.042 A 
ATOM     13  C   UNL     1       4.809   1.722   2.159  1.00  0.00    +0.026 A 
ATOM     14  C   UNL     1       3.060   0.758   0.815  1.00  0.00    +0.036 A 
ATOM     15  C   UNL     1       3.972   2.792   2.481  1.00  0.00    +0.003 A 
ATOM     16  C   UNL     1       2.677   2.848   1.967  1.00  0.00    +0.010 A 
BRANCH  12  17
ATOM     17  N   UNL     1       5.265  -0.351   1.038  1.00  0.00    -0.322 N 
ATOM     18  O   UNL     1       4.000  -1.755  -0.334  1.00  0.00    -0.269 OA
ATOM     19  C   UNL     1       5.043  -1.458   0.238  1.00  0.00    +0.255 C 
ATOM     20  H   UNL     1       6.162  -0.290   1.504  1.00  0.00    +0.170 HD
BRANCH  19  21
ATOM     21  C   UNL     1       6.205  -2.383   0.101  1.00  0.00    +0.040 A 
ATOM     22  C   UNL     1       7.521  -1.911   0.026  1.00  0.00    +0.014 A 
ATOM     23  C   UNL     1       5.953  -3.758   0.008  1.00  0.00    +0.027 A 
ATOM     24  C   UNL     1       8.577  -2.813  -0.114  1.00  0.00    +0.001 A 
ATOM     25  C   UNL     1       7.010  -4.673  -0.125  1.00  0.00    +0.056 A 
ATOM     26  C   UNL     1       8.324  -4.184  -0.188  1.00  0.00    +0.013 A 
BRANCH  25  27
ATOM     27  C   UNL     1       6.727  -6.152  -0.241  1.00  0.00    +0.416 C 
ATOM     28  F   UNL     1       6.429  -6.522  -1.516  1.00  0.00    -0.166 F 
ATOM     29  F   UNL     1       7.777  -6.930   0.142  1.00  0.00    -0.166 F 
ATOM     30  F   UNL     1       5.672  -6.549   0.523  1.00  0.00    -0.166 F 
ENDBRANCH  25  27
ENDBRANCH  19  21
ENDBRANCH  12  17
ENDBRANCH   1  11
BRANCH   7  31
ATOM     31  C   UNL     1      -5.049   2.395   1.542  1.00  0.00    -0.097 C 
ATOM     32  C   UNL     1      -6.442   2.409   1.094  1.00  0.00    +0.096 C 
BRANCH  32  33
ATOM     33  C   UNL     1      -6.924   1.023   0.660  1.00  0.00    +0.074 C 
BRANCH  33  34
ATOM     34  C   UNL     1      -5.943   0.150  -0.132  1.00  0.00    +0.263 C 
BRANCH  34  35
ATOM     35  N   UNL     1      -5.270   0.855  -1.283  1.00  0.00    -0.331 N 
ATOM     36  C   UNL     1      -6.184   1.371  -2.383  1.00  0.00    +0.291 C 
ATOM     37  C   UNL     1      -4.149   0.018  -1.905  1.00  0.00    +0.291 C 
ATOM     38  C   UNL     1      -6.669   0.220  -3.271  1.00  0.00    +0.221 C 
ATOM     39  C   UNL     1      -4.727  -1.069  -2.818  1.00  0.00    +0.221 C 
ATOM     40  O   UNL     1      -5.564  -0.499  -3.832  1.00  0.00    -0.370 OA
ATOM     41  H   UNL     1      -4.768   1.667  -0.890  1.00  0.00    +0.348 HD
ENDBRANCH  34  35
ENDBRANCH  33  34
ENDBRANCH  32  33
ENDBRANCH   7  31
TORSDOF 8
