REMARK SMILES O=C(Nc1cccc(-c2ccnc3c(-c4coc(C[NH+]5CCCC5)c4)cnn23)c1)c1cccc(C(F)(F)F)c1
REMARK SMILES IDX 9 1 10 2 11 3 12 4 13 5 14 6 26 7 27 8 28 9 8 10 4 11 5 12
REMARK SMILES IDX 29 13 6 14 7 15 3 16 1 17 2 18 30 20 31 21 39 22 32 23 34 24
REMARK SMILES IDX 33 25 35 26 36 27 37 28 38 29 15 30 16 31 25 32 17 33 18 34
REMARK SMILES IDX 19 35 20 36 21 37 24 38 22 39 23 40
REMARK H PARENT 3 19 20 41
ROOT
ATOM      1  C   UNL     1       0.992   0.886  -0.908  1.00  0.00    +0.076 C 
ATOM      2  C   UNL     1       1.086  -0.205  -1.692  1.00  0.00    +0.049 C 
ATOM      3  C   UNL     1      -0.152  -1.007  -1.850  1.00  0.00    +0.116 C 
ATOM      4  N   UNL     1      -1.307  -0.757  -1.312  1.00  0.00    -0.236 NA
ATOM      5  C   UNL     1      -1.367   0.360  -0.518  1.00  0.00    +0.163 A 
ATOM      6  C   UNL     1      -2.395   0.916   0.217  1.00  0.00    +0.050 A 
ATOM      7  C   UNL     1      -1.844   2.060   0.813  1.00  0.00    +0.146 A 
ATOM      8  N   UNL     1      -0.564   2.243   0.497  1.00  0.00    -0.174 NA
ATOM      9  N   UNL     1      -0.247   1.191  -0.311  1.00  0.00    -0.214 N 
ENDROOT
BRANCH   1  10
ATOM     10  C   UNL     1       2.194   1.726  -0.713  1.00  0.00    +0.002 A 
ATOM     11  C   UNL     1       4.553   1.922  -0.104  1.00  0.00    +0.042 A 
ATOM     12  C   UNL     1       4.488   3.297  -0.356  1.00  0.00    +0.026 A 
ATOM     13  C   UNL     1       3.400   1.150  -0.274  1.00  0.00    +0.036 A 
ATOM     14  C   UNL     1       3.296   3.885  -0.783  1.00  0.00    +0.003 A 
ATOM     15  C   UNL     1       2.156   3.103  -0.964  1.00  0.00    +0.010 A 
BRANCH  11  16
ATOM     16  N   UNL     1       5.792   1.399   0.323  1.00  0.00    -0.322 N 
ATOM     17  O   UNL     1       5.408  -0.901   0.268  1.00  0.00    -0.269 OA
ATOM     18  C   UNL     1       6.113   0.068   0.522  1.00  0.00    +0.255 C 
ATOM     19  H   UNL     1       6.535   2.076   0.442  1.00  0.00    +0.170 HD
BRANCH  18  20
ATOM     20  C   UNL     1       7.484  -0.178   1.054  1.00  0.00    +0.040 A 
ATOM     21  C   UNL     1       8.082   0.684   1.981  1.00  0.00    +0.014 A 
ATOM     22  C   UNL     1       8.168  -1.325   0.629  1.00  0.00    +0.027 A 
ATOM     23  C   UNL     1       9.367   0.415   2.454  1.00  0.00    +0.001 A 
ATOM     24  C   UNL     1       9.459  -1.608   1.106  1.00  0.00    +0.056 A 
ATOM     25  C   UNL     1      10.054  -0.718   2.013  1.00  0.00    +0.013 A 
BRANCH  24  26
ATOM     26  C   UNL     1      10.199  -2.830   0.620  1.00  0.00    +0.416 C 
ATOM     27  F   UNL     1      10.798  -2.622  -0.585  1.00  0.00    -0.166 F 
ATOM     28  F   UNL     1       9.387  -3.911   0.454  1.00  0.00    -0.166 F 
ATOM     29  F   UNL     1      11.187  -3.232   1.466  1.00  0.00    -0.166 F 
ENDBRANCH  24  26
ENDBRANCH  18  20
ENDBRANCH  11  16
ENDBRANCH   1  10
BRANCH   6  30
ATOM     30  C   UNL     1      -3.768   0.455   0.374  1.00  0.00    +0.026 A 
ATOM     31  C   UNL     1      -4.805   1.070   1.038  1.00  0.00    +0.204 A 
ATOM     32  C   UNL     1      -4.294  -0.757  -0.143  1.00  0.00    +0.060 A 
ATOM     33  O   UNL     1      -5.937   0.318   0.955  1.00  0.00    -0.463 OA
ATOM     34  C   UNL     1      -5.617  -0.800   0.238  1.00  0.00    +0.158 A 
BRANCH  34  35
ATOM     35  C   UNL     1      -6.711  -1.776   0.023  1.00  0.00    +0.338 C 
BRANCH  35  36
ATOM     36  N   UNL     1      -8.033  -1.090  -0.192  1.00  0.00    -0.329 N 
ATOM     37  C   UNL     1      -9.231  -1.986  -0.058  1.00  0.00    +0.262 C 
ATOM     38  C   UNL     1      -8.157  -0.335  -1.498  1.00  0.00    +0.262 C 
ATOM     39  C   UNL     1     -10.272  -1.300  -0.917  1.00  0.00    +0.067 C 
ATOM     40  C   UNL     1      -9.460  -0.827  -2.106  1.00  0.00    +0.067 C 
ATOM     41  H   UNL     1      -8.076  -0.383   0.557  1.00  0.00    +0.348 HD
ENDBRANCH  35  36
ENDBRANCH  34  35
ENDBRANCH   6  30
TORSDOF 7
