REMARK SMILES O=C(Nc1cccc(-c2cn3ccnc3c(NCCc3ccncc3)n2)c1)Nc1cccc(C(F)(F)F)c1
REMARK SMILES IDX 4 1 5 2 6 3 7 4 8 5 27 6 3 7 1 8 2 9 28 10 29 13 30 14 38 15
REMARK SMILES IDX 31 16 33 17 32 18 34 19 35 20 36 21 37 22 9 23 10 24 26 25
REMARK SMILES IDX 11 26 16 27 12 28 15 29 17 30 13 31 14 32 18 34 19 35 20 36
REMARK SMILES IDX 21 37 25 38 22 39 24 40 23 41
REMARK H PARENT 3 11 28 12 17 33
ROOT
ATOM      1  C   UNL     1       2.131  -0.672  -2.355  1.00  0.00    +0.043 A 
ATOM      2  C   UNL     1       1.841  -0.747  -3.722  1.00  0.00    +0.026 A 
ATOM      3  C   UNL     1       0.539  -0.993  -4.158  1.00  0.00    +0.003 A 
ATOM      4  C   UNL     1      -0.485  -1.168  -3.228  1.00  0.00    +0.010 A 
ATOM      5  C   UNL     1      -0.223  -1.102  -1.853  1.00  0.00    +0.004 A 
ATOM      6  C   UNL     1       1.093  -0.836  -1.433  1.00  0.00    +0.036 A 
ENDROOT
BRANCH   1   7
ATOM      7  N   UNL     1       3.471  -0.413  -1.995  1.00  0.00    -0.308 N 
ATOM      8  O   UNL     1       3.437  -0.798   0.290  1.00  0.00    -0.248 OA
ATOM      9  C   UNL     1       4.023  -0.433  -0.721  1.00  0.00    +0.323 C 
ATOM     10  N   UNL     1       5.336   0.016  -0.758  1.00  0.00    -0.308 N 
ATOM     11  H   UNL     1       4.112  -0.275  -2.760  1.00  0.00    +0.171 HD
ATOM     12  H   UNL     1       5.643   0.423  -1.627  1.00  0.00    +0.171 HD
BRANCH  10  13
ATOM     13  C   UNL     1       6.267   0.051   0.301  1.00  0.00    +0.043 A 
ATOM     14  C   UNL     1       7.510   0.641   0.038  1.00  0.00    +0.026 A 
ATOM     15  C   UNL     1       6.027  -0.472   1.574  1.00  0.00    +0.039 A 
ATOM     16  C   UNL     1       8.490   0.717   1.030  1.00  0.00    +0.003 A 
ATOM     17  C   UNL     1       7.008  -0.409   2.581  1.00  0.00    +0.058 A 
ATOM     18  C   UNL     1       8.239   0.197   2.297  1.00  0.00    +0.013 A 
BRANCH  17  19
ATOM     19  C   UNL     1       6.714  -0.965   3.952  1.00  0.00    +0.416 C 
ATOM     20  F   UNL     1       6.087  -2.173   3.915  1.00  0.00    -0.166 F 
ATOM     21  F   UNL     1       5.912  -0.145   4.686  1.00  0.00    -0.166 F 
ATOM     22  F   UNL     1       7.835  -1.157   4.705  1.00  0.00    -0.166 F 
ENDBRANCH  17  19
ENDBRANCH  10  13
ENDBRANCH   1   7
BRANCH   5  23
ATOM     23  C   UNL     1      -1.336  -1.277  -0.885  1.00  0.00    +0.089 C 
ATOM     24  C   UNL     1      -1.126  -1.943   0.269  1.00  0.00    +0.122 C 
ATOM     25  N   UNL     1      -2.576  -0.756  -1.239  1.00  0.00    -0.226 NA
ATOM     26  N   UNL     1      -2.183  -2.092   1.141  1.00  0.00    -0.302 N 
ATOM     27  C   UNL     1      -3.603  -0.887  -0.423  1.00  0.00    +0.170 C 
ATOM     28  C   UNL     1      -2.279  -2.693   2.366  1.00  0.00    +0.113 A 
ATOM     29  C   UNL     1      -3.419  -1.584   0.842  1.00  0.00    +0.180 A 
ATOM     30  N   UNL     1      -4.774  -0.327  -0.868  1.00  0.00    -0.367 N 
ATOM     31  C   UNL     1      -3.588  -2.508   2.753  1.00  0.00    +0.132 A 
ATOM     32  N   UNL     1      -4.295  -1.815   1.801  1.00  0.00    -0.234 NA
ATOM     33  H   UNL     1      -4.706   0.158  -1.754  1.00  0.00    +0.162 HD
BRANCH  30  34
ATOM     34  C   UNL     1      -6.017  -0.208  -0.138  1.00  0.00    +0.119 C 
BRANCH  34  35
ATOM     35  C   UNL     1      -5.976   0.937   0.882  1.00  0.00    +0.057 C 
BRANCH  35  36
ATOM     36  C   UNL     1      -5.906   2.301   0.235  1.00  0.00    -0.043 A 
ATOM     37  C   UNL     1      -4.672   2.885  -0.065  1.00  0.00    +0.024 A 
ATOM     38  C   UNL     1      -7.069   2.998  -0.100  1.00  0.00    +0.024 A 
ATOM     39  C   UNL     1      -4.655   4.127  -0.679  1.00  0.00    +0.111 A 
ATOM     40  C   UNL     1      -6.949   4.237  -0.711  1.00  0.00    +0.111 A 
ATOM     41  N   UNL     1      -5.768   4.818  -1.010  1.00  0.00    -0.265 NA
ENDBRANCH  35  36
ENDBRANCH  34  35
ENDBRANCH  30  34
ENDBRANCH   5  23
TORSDOF 7
