REMARK SMILES O=C(Nc1cccc(-c2cn3ccnc3c(NCc3cccnc3)n2)c1)Nc1cccc(C(F)(F)F)c1
REMARK SMILES IDX 4 1 5 2 6 3 7 4 8 5 26 6 3 7 1 8 2 9 27 10 28 13 29 14 37 15
REMARK SMILES IDX 30 16 32 17 31 18 33 19 34 20 35 21 36 22 9 23 10 24 25 25
REMARK SMILES IDX 11 26 16 27 12 28 15 29 17 30 13 31 14 32 18 34 19 35 20 36
REMARK SMILES IDX 24 37 21 38 23 39 22 40
REMARK H PARENT 3 11 27 12 17 33
ROOT
ATOM      1  C   UNL     1       0.974   0.709   1.433  1.00  0.00    +0.043 A 
ATOM      2  C   UNL     1       1.618   1.083   2.605  1.00  0.00    +0.026 A 
ATOM      3  C   UNL     1       0.996   1.980   3.486  1.00  0.00    +0.003 A 
ATOM      4  C   UNL     1      -0.280   2.493   3.212  1.00  0.00    +0.010 A 
ATOM      5  C   UNL     1      -0.933   2.136   2.032  1.00  0.00    +0.004 A 
ATOM      6  C   UNL     1      -0.268   1.274   1.147  1.00  0.00    +0.036 A 
ENDROOT
BRANCH   1   7
ATOM      7  N   UNL     1       1.427  -0.250   0.510  1.00  0.00    -0.308 N 
ATOM      8  O   UNL     1       3.543  -0.763   1.286  1.00  0.00    -0.248 OA
ATOM      9  C   UNL     1       2.612  -0.960   0.516  1.00  0.00    +0.323 C 
ATOM     10  N   UNL     1       2.581  -1.928  -0.480  1.00  0.00    -0.308 N 
ATOM     11  H   UNL     1       0.788  -0.456  -0.251  1.00  0.00    +0.171 HD
ATOM     12  H   UNL     1       1.687  -2.049  -0.939  1.00  0.00    +0.171 HD
BRANCH  10  13
ATOM     13  C   UNL     1       3.608  -2.808  -0.868  1.00  0.00    +0.043 A 
ATOM     14  C   UNL     1       3.295  -3.760  -1.846  1.00  0.00    +0.026 A 
ATOM     15  C   UNL     1       4.903  -2.776  -0.347  1.00  0.00    +0.039 A 
ATOM     16  C   UNL     1       4.256  -4.670  -2.290  1.00  0.00    +0.003 A 
ATOM     17  C   UNL     1       5.884  -3.684  -0.790  1.00  0.00    +0.058 A 
ATOM     18  C   UNL     1       5.544  -4.635  -1.761  1.00  0.00    +0.013 A 
BRANCH  17  19
ATOM     19  C   UNL     1       7.270  -3.640  -0.197  1.00  0.00    +0.416 C 
ATOM     20  F   UNL     1       7.766  -2.377  -0.089  1.00  0.00    -0.166 F 
ATOM     21  F   UNL     1       8.189  -4.333  -0.930  1.00  0.00    -0.166 F 
ATOM     22  F   UNL     1       7.320  -4.174   1.055  1.00  0.00    -0.166 F 
ENDBRANCH  17  19
ENDBRANCH  10  13
ENDBRANCH   1   7
BRANCH   5  23
ATOM     23  C   UNL     1      -2.314   2.532   1.661  1.00  0.00    +0.089 C 
ATOM     24  C   UNL     1      -2.823   3.744   1.954  1.00  0.00    +0.122 C 
ATOM     25  N   UNL     1      -3.010   1.592   0.908  1.00  0.00    -0.226 NA
ATOM     26  N   UNL     1      -4.072   4.059   1.453  1.00  0.00    -0.302 N 
ATOM     27  C   UNL     1      -4.169   1.880   0.375  1.00  0.00    +0.170 C 
ATOM     28  C   UNL     1      -4.848   5.181   1.554  1.00  0.00    +0.113 A 
ATOM     29  C   UNL     1      -4.758   3.175   0.661  1.00  0.00    +0.180 A 
ATOM     30  N   UNL     1      -4.791   0.961  -0.439  1.00  0.00    -0.363 N 
ATOM     31  C   UNL     1      -5.977   4.906   0.808  1.00  0.00    +0.132 A 
ATOM     32  N   UNL     1      -5.915   3.650   0.249  1.00  0.00    -0.234 NA
ATOM     33  H   UNL     1      -5.693   1.231  -0.817  1.00  0.00    +0.162 HD
BRANCH  30  34
ATOM     34  C   UNL     1      -4.316  -0.383  -0.684  1.00  0.00    +0.152 C 
BRANCH  34  35
ATOM     35  C   UNL     1      -3.016  -0.424  -1.450  1.00  0.00    -0.010 A 
ATOM     36  C   UNL     1      -2.855   0.229  -2.675  1.00  0.00    +0.009 A 
ATOM     37  C   UNL     1      -1.914  -1.128  -0.961  1.00  0.00    +0.116 A 
ATOM     38  C   UNL     1      -1.632   0.168  -3.338  1.00  0.00    +0.020 A 
ATOM     39  N   UNL     1      -0.698  -1.195  -1.571  1.00  0.00    -0.264 NA
ATOM     40  C   UNL     1      -0.596  -0.546  -2.754  1.00  0.00    +0.111 A 
ENDBRANCH  34  35
ENDBRANCH  30  34
ENDBRANCH   5  23
TORSDOF 6
