REMARK SMILES O=C(Nc1cccc(-c2ccnc3c(-c4ccc(C[NH+]5CCCC5)cc4)cnn23)c1)c1cccc(C(F)(F)F)c1
REMARK SMILES IDX 9 1 10 2 11 3 12 4 13 5 14 6 27 7 28 8 29 9 8 10 4 11 5 12
REMARK SMILES IDX 30 13 6 14 7 15 3 16 1 17 2 18 31 20 32 21 40 22 33 23 35 24
REMARK SMILES IDX 34 25 36 26 37 27 38 28 39 29 15 30 16 31 26 32 17 33 25 34
REMARK SMILES IDX 18 35 19 36 20 37 21 38 24 39 22 40 23 41
REMARK H PARENT 3 19 20 42
ROOT
ATOM      1  C   UNL     1       1.287   0.179   1.235  1.00  0.00    +0.076 C 
ATOM      2  C   UNL     1       1.187  -1.163   1.188  1.00  0.00    +0.049 C 
ATOM      3  C   UNL     1      -0.120  -1.708   0.749  1.00  0.00    +0.116 C 
ATOM      4  N   UNL     1      -1.166  -1.021   0.408  1.00  0.00    -0.236 NA
ATOM      5  C   UNL     1      -1.031   0.344   0.461  1.00  0.00    +0.163 A 
ATOM      6  C   UNL     1      -1.911   1.372   0.164  1.00  0.00    +0.047 A 
ATOM      7  C   UNL     1      -1.189   2.547   0.444  1.00  0.00    +0.146 A 
ATOM      8  N   UNL     1       0.047   2.315   0.875  1.00  0.00    -0.174 NA
ATOM      9  N   UNL     1       0.168   0.958   0.878  1.00  0.00    -0.214 N 
ENDROOT
BRANCH   1  10
ATOM     10  C   UNL     1       2.566   0.782   1.669  1.00  0.00    +0.002 A 
ATOM     11  C   UNL     1       4.995   0.958   1.456  1.00  0.00    +0.042 A 
ATOM     12  C   UNL     1       5.003   1.898   2.491  1.00  0.00    +0.026 A 
ATOM     13  C   UNL     1       3.773   0.416   1.045  1.00  0.00    +0.036 A 
ATOM     14  C   UNL     1       3.813   2.278   3.115  1.00  0.00    +0.003 A 
ATOM     15  C   UNL     1       2.601   1.720   2.708  1.00  0.00    +0.010 A 
BRANCH  11  16
ATOM     16  N   UNL     1       6.237   0.622   0.876  1.00  0.00    -0.322 N 
ATOM     17  O   UNL     1       5.674  -1.170  -0.509  1.00  0.00    -0.269 OA
ATOM     18  C   UNL     1       6.479  -0.354  -0.074  1.00  0.00    +0.255 C 
ATOM     19  H   UNL     1       7.039   1.120   1.241  1.00  0.00    +0.170 HD
BRANCH  18  20
ATOM     20  C   UNL     1       7.886  -0.426  -0.561  1.00  0.00    +0.040 A 
ATOM     21  C   UNL     1       8.666   0.724  -0.735  1.00  0.00    +0.014 A 
ATOM     22  C   UNL     1       8.417  -1.682  -0.883  1.00  0.00    +0.027 A 
ATOM     23  C   UNL     1       9.976   0.613  -1.204  1.00  0.00    +0.001 A 
ATOM     24  C   UNL     1       9.737  -1.804  -1.347  1.00  0.00    +0.056 A 
ATOM     25  C   UNL     1      10.508  -0.642  -1.506  1.00  0.00    +0.013 A 
BRANCH  24  26
ATOM     26  C   UNL     1      10.296  -3.159  -1.708  1.00  0.00    +0.416 C 
ATOM     27  F   UNL     1       9.980  -3.528  -2.978  1.00  0.00    -0.166 F 
ATOM     28  F   UNL     1       9.836  -4.154  -0.900  1.00  0.00    -0.166 F 
ATOM     29  F   UNL     1      11.655  -3.215  -1.627  1.00  0.00    -0.166 F 
ENDBRANCH  24  26
ENDBRANCH  18  20
ENDBRANCH  11  16
ENDBRANCH   1  10
BRANCH   6  30
ATOM     30  C   UNL     1      -3.275   1.206  -0.307  1.00  0.00    -0.013 A 
ATOM     31  C   UNL     1      -3.603   0.212  -1.236  1.00  0.00    +0.009 A 
ATOM     32  C   UNL     1      -4.287   2.057   0.153  1.00  0.00    +0.009 A 
ATOM     33  C   UNL     1      -4.918   0.057  -1.685  1.00  0.00    +0.010 A 
ATOM     34  C   UNL     1      -5.605   1.903  -0.291  1.00  0.00    +0.010 A 
ATOM     35  C   UNL     1      -5.935   0.897  -1.209  1.00  0.00    +0.006 A 
BRANCH  35  36
ATOM     36  C   UNL     1      -7.358   0.688  -1.648  1.00  0.00    +0.299 C 
BRANCH  36  37
ATOM     37  N   UNL     1      -7.976  -0.524  -1.009  1.00  0.00    -0.331 N 
ATOM     38  C   UNL     1      -9.273  -0.958  -1.638  1.00  0.00    +0.262 C 
ATOM     39  C   UNL     1      -8.208  -0.423   0.486  1.00  0.00    +0.262 C 
ATOM     40  C   UNL     1      -9.934  -1.752  -0.533  1.00  0.00    +0.067 C 
ATOM     41  C   UNL     1      -9.629  -0.922   0.699  1.00  0.00    +0.067 C 
ATOM     42  H   UNL     1      -7.305  -1.291  -1.142  1.00  0.00    +0.348 HD
ENDBRANCH  36  37
ENDBRANCH  35  36
ENDBRANCH   6  30
TORSDOF 7
