REMARK SMILES Cc1ccc(-n2nc(C(C)(C)C)cc2NC(=O)Nc2ccc(OCC[NH+]3CCOCC3)cc2)cc1
REMARK SMILES IDX 19 1 20 2 21 3 22 4 32 5 33 6 18 7 15 8 16 9 17 10 14 13
REMARK SMILES IDX 6 14 7 15 8 16 13 17 5 18 2 19 3 20 35 21 4 22 34 23 1 24
REMARK SMILES IDX 9 25 10 26 11 27 12 28 23 29 24 30 25 31 26 32 27 33 31 34
REMARK SMILES IDX 28 35 30 36 29 37
REMARK H PARENT 15 11 18 12 26 38
ROOT
ATOM      1  C   UNL     1       1.037  -0.366   1.259  1.00  0.00    +0.043 A 
ATOM      2  C   UNL     1       1.323   0.359   0.102  1.00  0.00    +0.030 A 
ATOM      3  C   UNL     1       2.585   0.936  -0.094  1.00  0.00    +0.048 A 
ATOM      4  C   UNL     1       3.582   0.791   0.867  1.00  0.00    +0.119 A 
ATOM      5  C   UNL     1       3.303   0.067   2.026  1.00  0.00    +0.048 A 
ATOM      6  C   UNL     1       2.040  -0.506   2.223  1.00  0.00    +0.030 A 
ENDROOT
BRANCH   1   7
ATOM      7  N   UNL     1      -0.209  -0.970   1.525  1.00  0.00    -0.308 N 
ATOM      8  N   UNL     1      -2.365  -1.685   1.312  1.00  0.00    -0.292 N 
ATOM      9  C   UNL     1      -1.344  -0.943   0.729  1.00  0.00    +0.324 C 
ATOM     10  O   UNL     1      -1.446  -0.363  -0.343  1.00  0.00    -0.248 OA
ATOM     11  H   UNL     1      -2.097  -2.466   1.894  1.00  0.00    +0.173 HD
ATOM     12  H   UNL     1      -0.304  -1.438   2.413  1.00  0.00    +0.171 HD
BRANCH   8  13
ATOM     13  C   UNL     1      -3.659  -1.693   0.805  1.00  0.00    +0.138 A 
ATOM     14  N   UNL     1      -4.354  -0.668   0.153  1.00  0.00    -0.217 N 
ATOM     15  N   UNL     1      -5.439  -1.178  -0.497  1.00  0.00    -0.170 NA
ATOM     16  C   UNL     1      -5.605  -2.410  -0.003  1.00  0.00    +0.070 A 
ATOM     17  C   UNL     1      -4.531  -2.761   0.846  1.00  0.00    +0.073 A 
BRANCH  14  18
ATOM     18  C   UNL     1      -4.207   0.751   0.226  1.00  0.00    +0.067 A 
ATOM     19  C   UNL     1      -4.041   3.560   0.377  1.00  0.00    -0.051 A 
ATOM     20  C   UNL     1      -4.762   2.948  -0.653  1.00  0.00    +0.005 A 
ATOM     21  C   UNL     1      -3.400   2.757   1.328  1.00  0.00    +0.005 A 
ATOM     22  C   UNL     1      -4.857   1.555  -0.722  1.00  0.00    +0.029 A 
ATOM     23  C   UNL     1      -3.492   1.362   1.262  1.00  0.00    +0.029 A 
ATOM     24  C   UNL     1      -3.917   5.054   0.433  1.00  0.00    +0.044 C 
ENDBRANCH  14  18
BRANCH  16  25
ATOM     25  C   UNL     1      -6.809  -3.239  -0.425  1.00  0.00    +0.006 C 
ATOM     26  C   UNL     1      -6.725  -3.561  -1.931  1.00  0.00    +0.017 C 
ATOM     27  C   UNL     1      -6.884  -4.574   0.345  1.00  0.00    +0.017 C 
ATOM     28  C   UNL     1      -8.114  -2.464  -0.150  1.00  0.00    +0.017 C 
ENDBRANCH  16  25
ENDBRANCH   8  13
ENDBRANCH   1   7
BRANCH   4  29
ATOM     29  O   UNL     1       4.851   1.295   0.792  1.00  0.00    -0.488 OA
BRANCH  29  30
ATOM     30  C   UNL     1       5.162   2.089  -0.355  1.00  0.00    +0.290 C 
BRANCH  30  31
ATOM     31  C   UNL     1       6.614   2.571  -0.241  1.00  0.00    +0.304 C 
BRANCH  31  32
ATOM     32  N   UNL     1       7.662   1.498  -0.494  1.00  0.00    -0.328 N 
ATOM     33  C   UNL     1       7.758   1.032  -1.942  1.00  0.00    +0.291 C 
ATOM     34  C   UNL     1       7.578   0.287   0.433  1.00  0.00    +0.291 C 
ATOM     35  C   UNL     1       8.958   0.086  -2.085  1.00  0.00    +0.221 C 
ATOM     36  C   UNL     1       8.795  -0.613   0.184  1.00  0.00    +0.221 C 
ATOM     37  O   UNL     1       8.852  -1.026  -1.188  1.00  0.00    -0.370 OA
ATOM     38  H   UNL     1       8.560   1.951  -0.280  1.00  0.00    +0.348 HD
ENDBRANCH  31  32
ENDBRANCH  30  31
ENDBRANCH  29  30
ENDBRANCH   4  29
TORSDOF 8
