REMARK SMILES C[NH+]1CCN(c2ccc(Nc3nccc(-c4ccc(C(=O)NCC#N)cc4)n3)cc2)CC1
REMARK SMILES IDX 11 1 12 2 13 3 14 4 15 5 28 6 10 7 9 9 6 10 7 11 30 12 8 13
REMARK SMILES IDX 29 14 5 15 2 16 3 17 32 18 4 19 31 20 1 21 16 23 17 24 27 25
REMARK SMILES IDX 18 26 26 27 19 28 20 29 21 30 22 31 23 33 24 34 25 35
REMARK H PARENT 10 8 2 22 22 32
ROOT
ATOM      1  C   UNL     1       1.164  -0.261  -0.715  1.00  0.00    +0.227 A 
ATOM      2  N   UNL     1       0.980  -0.514  -2.016  1.00  0.00    -0.221 NA
ATOM      3  C   UNL     1       2.079  -0.622  -2.782  1.00  0.00    +0.117 A 
ATOM      4  C   UNL     1       3.357  -0.492  -2.299  1.00  0.00    +0.049 A 
ATOM      5  C   UNL     1       3.470  -0.236  -0.948  1.00  0.00    +0.076 A 
ATOM      6  N   UNL     1       2.377  -0.116  -0.159  1.00  0.00    -0.213 NA
ENDROOT
BRANCH   1   7
ATOM      7  N   UNL     1       0.102  -0.128   0.174  1.00  0.00    -0.324 N 
ATOM      8  H   UNL     1       0.479   0.045   1.095  1.00  0.00    +0.170 HD
BRANCH   7   9
ATOM      9  C   UNL     1      -1.287  -0.182   0.049  1.00  0.00    +0.041 A 
ATOM     10  C   UNL     1      -4.153  -0.257  -0.077  1.00  0.00    +0.037 A 
ATOM     11  C   UNL     1      -3.476  -0.044   1.130  1.00  0.00    +0.028 A 
ATOM     12  C   UNL     1      -3.359  -0.445  -1.214  1.00  0.00    +0.028 A 
ATOM     13  C   UNL     1      -2.075  -0.005   1.191  1.00  0.00    +0.028 A 
ATOM     14  C   UNL     1      -1.956  -0.404  -1.153  1.00  0.00    +0.028 A 
BRANCH  10  15
ATOM     15  N   UNL     1      -5.547  -0.293  -0.115  1.00  0.00    -0.360 N 
ATOM     16  N   UNL     1      -8.424  -0.150  -0.359  1.00  0.00    -0.334 N 
ATOM     17  C   UNL     1      -7.711   0.495   0.826  1.00  0.00    +0.283 C 
ATOM     18  C   UNL     1      -7.662  -1.389  -0.819  1.00  0.00    +0.283 C 
ATOM     19  C   UNL     1      -6.260   0.863   0.457  1.00  0.00    +0.178 C 
ATOM     20  C   UNL     1      -6.215  -1.024  -1.203  1.00  0.00    +0.178 C 
ATOM     21  C   UNL     1      -9.860  -0.449  -0.060  1.00  0.00    +0.332 C 
ATOM     22  H   UNL     1      -8.396   0.527  -1.132  1.00  0.00    +0.347 HD
ENDBRANCH  10  15
ENDBRANCH   7   9
ENDBRANCH   1   7
BRANCH   5  23
ATOM     23  C   UNL     1       4.770  -0.063  -0.267  1.00  0.00    +0.000 A 
ATOM     24  C   UNL     1       4.896   0.821   0.820  1.00  0.00    +0.011 A 
ATOM     25  C   UNL     1       5.921  -0.775  -0.655  1.00  0.00    +0.011 A 
ATOM     26  C   UNL     1       6.116   1.002   1.480  1.00  0.00    +0.014 A 
ATOM     27  C   UNL     1       7.148  -0.600   0.001  1.00  0.00    +0.014 A 
ATOM     28  C   UNL     1       7.252   0.302   1.064  1.00  0.00    +0.039 A 
BRANCH  28  29
ATOM     29  C   UNL     1       8.526   0.527   1.801  1.00  0.00    +0.252 C 
ATOM     30  O   UNL     1       8.507   0.897   2.969  1.00  0.00    -0.269 OA
ATOM     31  N   UNL     1       9.692   0.333   1.097  1.00  0.00    -0.339 N 
ATOM     32  H   UNL     1       9.668   0.150   0.104  1.00  0.00    +0.164 HD
BRANCH  31  33
ATOM     33  C   UNL     1      10.984   0.597   1.708  1.00  0.00    +0.237 C 
ATOM     34  C   UNL     1      11.492   1.932   1.350  1.00  0.00    +0.084 C 
ATOM     35  N   UNL     1      11.901   2.970   1.029  1.00  0.00    -0.196 NA
ENDBRANCH  31  33
ENDBRANCH  28  29
ENDBRANCH   5  23
TORSDOF 6
