REMARK SMILES COc1cc(C(=O)[N-]S(=O)(=O)c2ccccc2C)ccc1Cc1c[nH]c2ccc(NC(=O)OC3CCCC3)cc12
REMARK SMILES IDX 3 1 4 2 5 3 19 4 20 5 21 6 2 7 1 8 22 9 23 10 24 11 40 12
REMARK SMILES IDX 25 13 39 14 26 15 29 16 27 17 28 18 30 20 31 21 32 22 33 24
REMARK SMILES IDX 34 25 35 26 38 27 36 28 37 29 6 30 7 31 8 32 9 33 10 34
REMARK SMILES IDX 11 35 12 36 13 37 17 38 14 39 16 40 15 41 18 42
REMARK H PARENT 25 19 30 23
ROOT
ATOM      1  C   UNL     1      -2.393   1.544   2.162  1.00  0.00    +0.123 A 
ATOM      2  C   UNL     1      -3.484   0.675   2.041  1.00  0.00    +0.056 A 
ATOM      3  C   UNL     1      -3.311  -0.625   1.554  1.00  0.00    +0.004 A 
ATOM      4  C   UNL     1      -2.020  -1.074   1.257  1.00  0.00    +0.011 A 
ATOM      5  C   UNL     1      -0.921  -0.228   1.424  1.00  0.00    +0.008 A 
ATOM      6  C   UNL     1      -1.092   1.093   1.876  1.00  0.00    -0.001 A 
ENDROOT
BRANCH   1   7
ATOM      7  O   UNL     1      -2.533   2.841   2.594  1.00  0.00    -0.496 OA
ATOM      8  C   UNL     1      -3.715   3.484   2.113  1.00  0.00    +0.278 C 
ENDBRANCH   1   7
BRANCH   6   9
ATOM      9  C   UNL     1       0.110   1.996   2.030  1.00  0.00    +0.077 C 
BRANCH   9  10
ATOM     10  C   UNL     1       0.564   2.363   0.650  1.00  0.00    -0.018 A 
ATOM     11  C   UNL     1      -0.135   3.119  -0.275  1.00  0.00    +0.087 A 
ATOM     12  C   UNL     1       1.813   2.019   0.032  1.00  0.00    +0.005 A 
ATOM     13  N   UNL     1       0.608   3.205  -1.418  1.00  0.00    -0.361 N 
ATOM     14  C   UNL     1       2.946   1.284   0.444  1.00  0.00    +0.036 A 
ATOM     15  C   UNL     1       1.812   2.563  -1.252  1.00  0.00    +0.046 A 
ATOM     16  C   UNL     1       4.040   1.121  -0.423  1.00  0.00    +0.045 A 
ATOM     17  C   UNL     1       2.884   2.414  -2.136  1.00  0.00    +0.029 A 
ATOM     18  C   UNL     1       3.999   1.686  -1.697  1.00  0.00    +0.028 A 
ATOM     19  H   UNL     1       0.311   3.665  -2.267  1.00  0.00    +0.166 HD
BRANCH  16  20
ATOM     20  N   UNL     1       5.128   0.374   0.063  1.00  0.00    -0.291 N 
ATOM     21  C   UNL     1       6.308   0.080  -0.556  1.00  0.00    +0.411 C 
ATOM     22  O   UNL     1       6.686   0.416  -1.667  1.00  0.00    -0.224 OA
ATOM     23  H   UNL     1       5.052  -0.014   0.992  1.00  0.00    +0.173 HD
BRANCH  21  24
ATOM     24  O   UNL     1       7.045  -0.681   0.299  1.00  0.00    -0.446 OA
BRANCH  24  25
ATOM     25  C   UNL     1       8.317  -1.101  -0.196  1.00  0.00    +0.178 C 
ATOM     26  C   UNL     1       9.146  -1.674   0.948  1.00  0.00    +0.045 C 
ATOM     27  C   UNL     1       8.207  -2.295  -1.138  1.00  0.00    +0.045 C 
ATOM     28  C   UNL     1      10.207  -2.511   0.248  1.00  0.00    +0.004 C 
ATOM     29  C   UNL     1       9.576  -2.965  -1.070  1.00  0.00    +0.004 C 
ENDBRANCH  24  25
ENDBRANCH  21  24
ENDBRANCH  16  20
ENDBRANCH   9  10
ENDBRANCH   6   9
BRANCH   3  30
ATOM     30  C   UNL     1      -4.455  -1.580   1.380  1.00  0.00    +0.094 C 
ATOM     31  O   UNL     1      -4.196  -2.779   1.505  1.00  0.00    -0.314 OA
BRANCH  30  32
ATOM     32  N   UNL     1      -5.688  -1.102   1.210  1.00  0.00    -0.538 NA
BRANCH  32  33
ATOM     33  S   UNL     1      -5.936  -0.161  -0.053  1.00  0.00    +0.125 S 
ATOM     34  O   UNL     1      -5.111  -0.390  -1.237  1.00  0.00    -0.240 OA
ATOM     35  O   UNL     1      -6.096   1.255   0.288  1.00  0.00    -0.240 OA
BRANCH  33  36
ATOM     36  C   UNL     1      -7.605  -0.618  -0.658  1.00  0.00    +0.055 A 
ATOM     37  C   UNL     1      -8.653   0.285  -0.431  1.00  0.00    +0.019 A 
ATOM     38  C   UNL     1      -7.834  -1.833  -1.332  1.00  0.00    -0.034 A 
ATOM     39  C   UNL     1      -9.940  -0.010  -0.876  1.00  0.00    +0.001 A 
ATOM     40  C   UNL     1      -9.139  -2.104  -1.779  1.00  0.00    +0.005 A 
ATOM     41  C   UNL     1     -10.183  -1.203  -1.551  1.00  0.00    +0.000 A 
ATOM     42  C   UNL     1      -6.750  -2.831  -1.623  1.00  0.00    +0.045 C 
ENDBRANCH  33  36
ENDBRANCH  32  33
ENDBRANCH  30  32
ENDBRANCH   3  30
TORSDOF 10
