REMARK SMILES Cc1ccc(NC(=O)c2cc(C[NH+]3CC[NH+](C)CC3)n(C(C)(C)C)n2)cc1Nc1nc2ccccc2n1-c1cc(N)ncn1
REMARK SMILES IDX 1 1 2 2 3 3 4 4 5 5 26 6 27 7 28 8 29 10 30 11 37 12 31 13
REMARK SMILES IDX 36 14 32 15 35 16 33 17 34 18 38 19 39 20 44 21 40 22 43 23
REMARK SMILES IDX 42 24 41 25 6 28 7 29 8 30 9 32 10 33 25 34 11 35 20 36
REMARK SMILES IDX 12 37 13 38 14 39 19 40 15 41 18 42 16 43 17 45 21 47 22 48
REMARK SMILES IDX 23 49 24 50
REMARK H PARENT 28 9 41 26 41 27 6 31 13 44 16 46
ROOT
ATOM      1  C   UNL     1       4.548   2.080   3.694  1.00  0.00    +0.046 C 
ATOM      2  C   UNL     1       3.242   1.564   3.148  1.00  0.00    -0.027 A 
ATOM      3  C   UNL     1       2.050   2.002   3.752  1.00  0.00    +0.008 A 
ATOM      4  C   UNL     1       0.806   1.568   3.292  1.00  0.00    +0.026 A 
ATOM      5  C   UNL     1       0.735   0.686   2.222  1.00  0.00    +0.043 A 
ATOM      6  C   UNL     1       1.923   0.239   1.625  1.00  0.00    +0.052 A 
ATOM      7  C   UNL     1       3.190   0.658   2.064  1.00  0.00    +0.046 A 
ENDROOT
BRANCH   7   8
ATOM      8  N   UNL     1       4.384   0.228   1.447  1.00  0.00    -0.325 N 
ATOM      9  H   UNL     1       5.235   0.514   1.935  1.00  0.00    +0.170 HD
BRANCH   8  10
ATOM     10  C   UNL     1       4.570  -0.498   0.313  1.00  0.00    +0.214 A 
ATOM     11  N   UNL     1       3.660  -0.946  -0.527  1.00  0.00    -0.212 NA
ATOM     12  N   UNL     1       5.858  -0.905  -0.081  1.00  0.00    -0.262 N 
ATOM     13  C   UNL     1       4.340  -1.561  -1.536  1.00  0.00    +0.091 A 
ATOM     14  C   UNL     1       5.717  -1.511  -1.329  1.00  0.00    +0.076 A 
ATOM     15  C   UNL     1       3.821  -2.162  -2.694  1.00  0.00    +0.031 A 
ATOM     16  C   UNL     1       6.611  -1.973  -2.314  1.00  0.00    +0.029 A 
ATOM     17  C   UNL     1       4.703  -2.670  -3.651  1.00  0.00    +0.002 A 
ATOM     18  C   UNL     1       6.078  -2.562  -3.467  1.00  0.00    +0.002 A 
BRANCH  12  19
ATOM     19  C   UNL     1       7.056  -0.713   0.689  1.00  0.00    +0.145 A 
ATOM     20  C   UNL     1       8.166  -1.508   0.478  1.00  0.00    +0.094 A 
ATOM     21  N   UNL     1       7.037   0.242   1.653  1.00  0.00    -0.218 NA
ATOM     22  C   UNL     1       9.274  -1.254   1.258  1.00  0.00    +0.128 A 
ATOM     23  C   UNL     1       8.180   0.420   2.332  1.00  0.00    +0.226 A 
ATOM     24  N   UNL     1       9.306  -0.278   2.168  1.00  0.00    -0.220 NA
BRANCH  22  25
ATOM     25  N   UNL     1      10.439  -1.971   1.083  1.00  0.00    -0.384 N 
ATOM     26  H   UNL     1      10.391  -2.958   0.879  1.00  0.00    +0.158 HD
ATOM     27  H   UNL     1      11.192  -1.668   1.691  1.00  0.00    +0.158 HD
ENDBRANCH  22  25
ENDBRANCH  12  19
ENDBRANCH   8  10
ENDBRANCH   7   8
BRANCH   5  28
ATOM     28  N   UNL     1      -0.469   0.201   1.681  1.00  0.00    -0.321 N 
ATOM     29  C   UNL     1      -1.756   0.532   2.031  1.00  0.00    +0.276 C 
ATOM     30  O   UNL     1      -2.126   1.343   2.872  1.00  0.00    -0.267 OA
ATOM     31  H   UNL     1      -0.391  -0.467   0.917  1.00  0.00    +0.170 HD
BRANCH  29  32
ATOM     32  C   UNL     1      -2.759  -0.147   1.192  1.00  0.00    +0.151 A 
ATOM     33  C   UNL     1      -4.161  -0.086   1.347  1.00  0.00    +0.065 A 
ATOM     34  N   UNL     1      -2.451  -0.825   0.076  1.00  0.00    -0.167 NA
ATOM     35  C   UNL     1      -4.688  -0.640   0.194  1.00  0.00    +0.094 A 
ATOM     36  N   UNL     1      -3.623  -1.339  -0.358  1.00  0.00    -0.258 N 
BRANCH  35  37
ATOM     37  C   UNL     1      -6.068  -0.559  -0.329  1.00  0.00    +0.319 C 
BRANCH  37  38
ATOM     38  N   UNL     1      -6.435   0.846  -0.833  1.00  0.00    -0.321 N 
ATOM     39  C   UNL     1      -6.574   1.911   0.262  1.00  0.00    +0.324 C 
ATOM     40  C   UNL     1      -5.601   1.293  -2.038  1.00  0.00    +0.324 C 
ATOM     41  C   UNL     1      -5.411   2.935   0.267  1.00  0.00    +0.324 C 
ATOM     42  C   UNL     1      -5.726   2.814  -2.285  1.00  0.00    +0.324 C 
ATOM     43  N   UNL     1      -5.228   3.620  -1.089  1.00  0.00    -0.328 N 
ATOM     44  H   UNL     1      -7.396   0.706  -1.183  1.00  0.00    +0.348 HD
ATOM     45  C   UNL     1      -5.747   5.041  -1.108  1.00  0.00    +0.333 C 
ATOM     46  H   UNL     1      -4.204   3.729  -1.204  1.00  0.00    +0.348 HD
ENDBRANCH  37  38
ENDBRANCH  35  37
BRANCH  36  47
ATOM     47  C   UNL     1      -3.587  -2.456  -1.332  1.00  0.00    +0.055 C 
ATOM     48  C   UNL     1      -4.571  -3.568  -0.920  1.00  0.00    +0.036 C 
ATOM     49  C   UNL     1      -3.906  -1.945  -2.747  1.00  0.00    +0.036 C 
ATOM     50  C   UNL     1      -2.181  -3.112  -1.382  1.00  0.00    +0.036 C 
ENDBRANCH  36  47
ENDBRANCH  29  32
ENDBRANCH   5  28
TORSDOF 9
