REMARK SMILES C[C@H](O)CNc1nccc(-n2ccnc2-c2cccc(NC(=O)Nc3ccc(N4CCOCC4)c(C(F)(F)F)c3)c2)n1
REMARK SMILES IDX 6 1 7 2 8 3 9 4 10 5 42 6 5 7 4 9 2 10 1 11 3 12 11 14 12 15
REMARK SMILES IDX 15 16 13 17 14 18 16 19 17 20 41 21 18 22 20 23 19 24 21 25
REMARK SMILES IDX 22 26 23 27 24 28 25 31 26 32 40 33 27 34 35 35 28 36 36 37
REMARK SMILES IDX 37 38 38 39 39 40 29 41 30 42 34 43 31 44 33 45 32 46
REMARK H PARENT 5 8 3 13 21 29 24 30
ROOT
ATOM      1  C   UNL     1       7.377   1.483  -0.714  1.00  0.00    +0.224 A 
ATOM      2  N   UNL     1       6.527   2.474  -0.992  1.00  0.00    -0.222 NA
ATOM      3  C   UNL     1       5.216   2.193  -0.912  1.00  0.00    +0.119 A 
ATOM      4  C   UNL     1       4.719   0.965  -0.548  1.00  0.00    +0.068 A 
ATOM      5  C   UNL     1       5.663   0.008  -0.250  1.00  0.00    +0.143 A 
ATOM      6  N   UNL     1       6.991   0.255  -0.356  1.00  0.00    -0.195 NA
ENDROOT
BRANCH   1   7
ATOM      7  N   UNL     1       8.702   1.791  -0.808  1.00  0.00    -0.352 N 
ATOM      8  H   UNL     1       8.901   2.715  -1.163  1.00  0.00    +0.163 HD
BRANCH   7   9
ATOM      9  C   UNL     1       9.765   0.834  -0.585  1.00  0.00    +0.147 C 
BRANCH   9  10
ATOM     10  C   UNL     1      10.280   0.872   0.866  1.00  0.00    +0.130 C 
ATOM     11  C   UNL     1       9.326   0.260   1.882  1.00  0.00    +0.040 C 
BRANCH  10  12
ATOM     12  O   UNL     1      10.553   2.224   1.250  1.00  0.00    -0.392 OA
ATOM     13  H   UNL     1       9.727   2.712   1.074  1.00  0.00    +0.211 HD
ENDBRANCH  10  12
ENDBRANCH   9  10
ENDBRANCH   7   9
ENDBRANCH   1   7
BRANCH   5  14
ATOM     14  N   UNL     1       5.293  -1.318   0.135  1.00  0.00    -0.284 N 
ATOM     15  C   UNL     1       6.163  -2.393   0.087  1.00  0.00    +0.115 A 
ATOM     16  C   UNL     1       4.079  -1.837   0.592  1.00  0.00    +0.145 A 
ATOM     17  C   UNL     1       5.411  -3.509   0.340  1.00  0.00    +0.132 A 
ATOM     18  N   UNL     1       4.122  -3.161   0.618  1.00  0.00    -0.236 NA
BRANCH  16  19
ATOM     19  C   UNL     1       2.910  -1.084   1.049  1.00  0.00    +0.020 A 
ATOM     20  C   UNL     1       3.015  -0.107   2.045  1.00  0.00    +0.012 A 
ATOM     21  C   UNL     1       1.647  -1.384   0.515  1.00  0.00    +0.038 A 
ATOM     22  C   UNL     1       1.883   0.593   2.459  1.00  0.00    +0.003 A 
ATOM     23  C   UNL     1       0.504  -0.684   0.924  1.00  0.00    +0.043 A 
ATOM     24  C   UNL     1       0.635   0.310   1.895  1.00  0.00    +0.026 A 
BRANCH  23  25
ATOM     25  N   UNL     1      -0.722  -1.054   0.333  1.00  0.00    -0.308 N 
ATOM     26  C   UNL     1      -1.954  -0.431   0.479  1.00  0.00    +0.323 C 
ATOM     27  O   UNL     1      -2.135   0.629   1.061  1.00  0.00    -0.248 OA
ATOM     28  N   UNL     1      -2.948  -1.180  -0.136  1.00  0.00    -0.308 N 
ATOM     29  H   UNL     1      -0.682  -1.825  -0.316  1.00  0.00    +0.171 HD
ATOM     30  H   UNL     1      -2.684  -2.102  -0.445  1.00  0.00    +0.171 HD
BRANCH  28  31
ATOM     31  C   UNL     1      -4.307  -0.842  -0.300  1.00  0.00    +0.043 A 
ATOM     32  C   UNL     1      -5.138  -1.807  -0.872  1.00  0.00    +0.028 A 
ATOM     33  C   UNL     1      -4.861   0.387   0.057  1.00  0.00    +0.041 A 
ATOM     34  C   UNL     1      -6.497  -1.548  -1.074  1.00  0.00    +0.028 A 
ATOM     35  C   UNL     1      -6.233   0.661  -0.142  1.00  0.00    +0.081 A 
ATOM     36  C   UNL     1      -7.063  -0.319  -0.712  1.00  0.00    +0.049 A 
BRANCH  35  37
ATOM     37  C   UNL     1      -6.795   1.998   0.274  1.00  0.00    +0.418 C 
ATOM     38  F   UNL     1      -7.333   2.705  -0.764  1.00  0.00    -0.166 F 
ATOM     39  F   UNL     1      -5.860   2.834   0.818  1.00  0.00    -0.166 F 
ATOM     40  F   UNL     1      -7.776   1.906   1.219  1.00  0.00    -0.166 F 
ENDBRANCH  35  37
BRANCH  36  41
ATOM     41  N   UNL     1      -8.411  -0.064  -0.926  1.00  0.00    -0.366 N 
ATOM     42  C   UNL     1      -8.790   0.344  -2.291  1.00  0.00    +0.145 C 
ATOM     43  C   UNL     1      -9.391  -0.941  -0.263  1.00  0.00    +0.145 C 
ATOM     44  C   UNL     1     -10.219   0.911  -2.284  1.00  0.00    +0.181 C 
ATOM     45  C   UNL     1     -10.789  -0.308  -0.349  1.00  0.00    +0.181 C 
ATOM     46  O   UNL     1     -11.153  -0.021  -1.711  1.00  0.00    -0.378 OA
ENDBRANCH  36  41
ENDBRANCH  28  31
ENDBRANCH  23  25
ENDBRANCH  16  19
ENDBRANCH   5  14
TORSDOF 10
