REMARK SMILES CC(=O)NC[C@H]1CN(c2ccc(N3CC[NH+](C(=O)/C=C/c4ccc(-c5ccccc5)cc4)CC3)c(F)c2)C(=O)O1
REMARK SMILES IDX 9 1 10 2 11 3 12 4 35 5 36 6 37 7 8 8 6 9 7 10 40 11 38 12
REMARK SMILES IDX 39 13 5 14 4 15 2 16 3 17 1 18 13 20 14 21 34 22 15 23 33 24
REMARK SMILES IDX 16 25 17 27 18 28 19 29 20 30 21 31 22 32 32 33 23 34 31 35
REMARK SMILES IDX 24 36 25 37 26 38 30 39 27 40 29 41 28 42
REMARK H PARENT 4 19 16 26
ROOT
ATOM      1  C   UNL     1      -5.534  -0.827  -0.397  1.00  0.00    +0.050 A 
ATOM      2  C   UNL     1      -4.795  -1.628   0.478  1.00  0.00    +0.029 A 
ATOM      3  C   UNL     1      -3.465  -1.321   0.812  1.00  0.00    +0.031 A 
ATOM      4  C   UNL     1      -2.811  -0.201   0.287  1.00  0.00    +0.073 A 
ATOM      5  C   UNL     1      -3.570   0.595  -0.587  1.00  0.00    +0.148 A 
ATOM      6  F   UNL     1      -3.012   1.668  -1.171  1.00  0.00    -0.205 F 
ATOM      7  C   UNL     1      -4.894   0.297  -0.926  1.00  0.00    +0.068 A 
ENDROOT
BRANCH   1   8
ATOM      8  N   UNL     1      -6.880  -1.122  -0.731  1.00  0.00    -0.274 N 
ATOM      9  C   UNL     1      -9.089  -0.799  -1.326  1.00  0.00    +0.217 C 
ATOM     10  C   UNL     1      -7.686  -0.296  -1.584  1.00  0.00    +0.176 C 
ATOM     11  O   UNL     1      -8.896  -2.140  -0.857  1.00  0.00    -0.442 OA
ATOM     12  C   UNL     1      -7.620  -2.237  -0.359  1.00  0.00    +0.414 C 
ATOM     13  O   UNL     1      -7.267  -3.201   0.301  1.00  0.00    -0.224 OA
BRANCH   9  14
ATOM     14  C   UNL     1      -9.895   0.005  -0.292  1.00  0.00    +0.163 C 
BRANCH  14  15
ATOM     15  N   UNL     1      -9.335  -0.009   1.050  1.00  0.00    -0.353 N 
ATOM     16  C   UNL     1      -8.456   0.948   1.498  1.00  0.00    +0.217 C 
ATOM     17  O   UNL     1      -8.048   1.872   0.802  1.00  0.00    -0.275 OA
ATOM     18  C   UNL     1      -7.988   0.731   2.911  1.00  0.00    +0.114 C 
ATOM     19  H   UNL     1      -9.594  -0.772   1.665  1.00  0.00    +0.163 HD
ENDBRANCH  14  15
ENDBRANCH   9  14
ENDBRANCH   1   8
BRANCH   4  20
ATOM     20  N   UNL     1      -1.496   0.077   0.645  1.00  0.00    -0.358 N 
ATOM     21  C   UNL     1      -0.990   1.459   0.653  1.00  0.00    +0.178 C 
ATOM     22  C   UNL     1      -0.488  -0.992   0.571  1.00  0.00    +0.178 C 
ATOM     23  C   UNL     1      -0.074   1.704  -0.563  1.00  0.00    +0.292 C 
ATOM     24  C   UNL     1       0.444  -0.756  -0.639  1.00  0.00    +0.292 C 
ATOM     25  N   UNL     1       1.026   0.645  -0.579  1.00  0.00    -0.265 N 
ATOM     26  H   UNL     1       1.548   0.756   0.290  1.00  0.00    +0.357 HD
BRANCH  25  27
ATOM     27  C   UNL     1       1.952   0.866  -1.686  1.00  0.00    +0.337 C 
ATOM     28  O   UNL     1       1.437   1.065  -2.770  1.00  0.00    -0.226 OA
BRANCH  27  29
ATOM     29  C   UNL     1       3.417   0.851  -1.497  1.00  0.00    +0.116 C 
ATOM     30  C   UNL     1       4.055   0.462  -0.382  1.00  0.00    +0.018 C 
BRANCH  30  31
ATOM     31  C   UNL     1       5.523   0.461  -0.276  1.00  0.00    -0.025 A 
ATOM     32  C   UNL     1       6.306   1.518  -0.753  1.00  0.00    +0.009 A 
ATOM     33  C   UNL     1       6.155  -0.604   0.373  1.00  0.00    +0.009 A 
ATOM     34  C   UNL     1       7.698   1.493  -0.608  1.00  0.00    +0.009 A 
ATOM     35  C   UNL     1       7.548  -0.625   0.517  1.00  0.00    +0.009 A 
ATOM     36  C   UNL     1       8.343   0.422   0.028  1.00  0.00    -0.018 A 
BRANCH  36  37
ATOM     37  C   UNL     1       9.807   0.398   0.179  1.00  0.00    -0.018 A 
ATOM     38  C   UNL     1      10.652   0.553  -0.933  1.00  0.00    +0.009 A 
ATOM     39  C   UNL     1      10.403   0.221   1.439  1.00  0.00    +0.009 A 
ATOM     40  C   UNL     1      12.043   0.531  -0.790  1.00  0.00    +0.001 A 
ATOM     41  C   UNL     1      11.793   0.199   1.583  1.00  0.00    +0.001 A 
ATOM     42  C   UNL     1      12.612   0.354   0.468  1.00  0.00    +0.000 A 
ENDBRANCH  36  37
ENDBRANCH  30  31
ENDBRANCH  27  29
ENDBRANCH  25  27
ENDBRANCH   4  20
TORSDOF 8
