REMARK SMILES CCOc1cc(OCC)c(C(F)(F)F)cc1NC(=O)Nc1cccc(-c2cn3ccnc3c(NCc3ccncc3)n2)c1
REMARK SMILES IDX 17 1 18 2 19 3 20 4 16 7 4 8 5 9 6 10 15 11 10 12 3 13 2 14
REMARK SMILES IDX 1 15 7 16 8 17 9 18 11 19 12 20 13 21 14 22 21 23 22 24
REMARK SMILES IDX 43 25 23 26 25 27 24 28 26 29 27 30 42 31 28 32 33 33 29 34
REMARK SMILES IDX 32 35 34 36 30 37 31 38 35 40 36 41 37 42 41 43 38 44 40 45
REMARK SMILES IDX 39 46
REMARK H PARENT 17 5 20 6 34 39
ROOT
ATOM      1  N   UNL     1       2.627  -0.071   2.155  1.00  0.00    -0.304 N 
ATOM      2  C   UNL     1       1.367   0.118   1.616  1.00  0.00    +0.323 C 
ATOM      3  O   UNL     1       1.085   0.973   0.786  1.00  0.00    -0.248 OA
ATOM      4  N   UNL     1       0.469  -0.792   2.156  1.00  0.00    -0.308 N 
ATOM      5  H   UNL     1       2.769  -0.868   2.760  1.00  0.00    +0.172 HD
ATOM      6  H   UNL     1       0.804  -1.338   2.934  1.00  0.00    +0.171 HD
ENDROOT
BRANCH   1   7
ATOM      7  C   UNL     1       3.805   0.676   1.929  1.00  0.00    +0.086 A 
ATOM      8  C   UNL     1       4.975   0.221   2.568  1.00  0.00    +0.146 A 
ATOM      9  C   UNL     1       6.180   0.911   2.394  1.00  0.00    +0.095 A 
ATOM     10  C   UNL     1       6.233   2.054   1.588  1.00  0.00    +0.135 A 
ATOM     11  C   UNL     1       3.861   1.817   1.130  1.00  0.00    +0.047 A 
ATOM     12  C   UNL     1       5.070   2.515   0.951  1.00  0.00    +0.100 A 
BRANCH   8  13
ATOM     13  O   UNL     1       4.817  -0.909   3.341  1.00  0.00    -0.492 OA
BRANCH  13  14
ATOM     14  C   UNL     1       5.976  -1.436   3.984  1.00  0.00    +0.226 C 
ATOM     15  C   UNL     1       5.559  -2.681   4.747  1.00  0.00    +0.049 C 
ENDBRANCH  13  14
ENDBRANCH   8  13
BRANCH  10  16
ATOM     16  O   UNL     1       7.362   2.793   1.358  1.00  0.00    -0.493 OA
BRANCH  16  17
ATOM     17  C   UNL     1       8.585   2.369   1.959  1.00  0.00    +0.226 C 
ATOM     18  C   UNL     1       9.673   3.339   1.537  1.00  0.00    +0.049 C 
ENDBRANCH  16  17
ENDBRANCH  10  16
BRANCH  12  19
ATOM     19  C   UNL     1       5.110   3.749   0.081  1.00  0.00    +0.420 C 
ATOM     20  F   UNL     1       5.955   3.628  -0.981  1.00  0.00    -0.166 F 
ATOM     21  F   UNL     1       3.898   4.068  -0.461  1.00  0.00    -0.166 F 
ATOM     22  F   UNL     1       5.502   4.866   0.757  1.00  0.00    -0.166 F 
ENDBRANCH  12  19
ENDBRANCH   1   7
BRANCH   4  23
ATOM     23  C   UNL     1      -0.883  -0.985   1.801  1.00  0.00    +0.043 A 
ATOM     24  C   UNL     1      -1.627  -1.874   2.585  1.00  0.00    +0.026 A 
ATOM     25  C   UNL     1      -1.503  -0.358   0.715  1.00  0.00    +0.036 A 
ATOM     26  C   UNL     1      -2.969  -2.122   2.296  1.00  0.00    +0.003 A 
ATOM     27  C   UNL     1      -2.860  -0.582   0.419  1.00  0.00    +0.004 A 
ATOM     28  C   UNL     1      -3.580  -1.480   1.220  1.00  0.00    +0.010 A 
BRANCH  27  29
ATOM     29  C   UNL     1      -3.532   0.076  -0.731  1.00  0.00    +0.089 C 
ATOM     30  C   UNL     1      -3.241   1.359  -1.037  1.00  0.00    +0.122 C 
ATOM     31  N   UNL     1      -4.474  -0.673  -1.433  1.00  0.00    -0.226 NA
ATOM     32  N   UNL     1      -3.892   1.941  -2.103  1.00  0.00    -0.302 N 
ATOM     33  C   UNL     1      -5.104  -0.136  -2.454  1.00  0.00    +0.170 C 
ATOM     34  C   UNL     1      -3.821   3.189  -2.659  1.00  0.00    +0.113 A 
ATOM     35  C   UNL     1      -4.814   1.237  -2.825  1.00  0.00    +0.180 A 
ATOM     36  N   UNL     1      -6.028  -0.865  -3.161  1.00  0.00    -0.363 N 
ATOM     37  C   UNL     1      -4.720   3.166  -3.705  1.00  0.00    +0.132 A 
ATOM     38  N   UNL     1      -5.341   1.943  -3.804  1.00  0.00    -0.234 NA
ATOM     39  H   UNL     1      -6.478  -0.398  -3.942  1.00  0.00    +0.162 HD
BRANCH  36  40
ATOM     40  C   UNL     1      -6.360  -2.235  -2.883  1.00  0.00    +0.150 C 
BRANCH  40  41
ATOM     41  C   UNL     1      -7.409  -2.707  -3.856  1.00  0.00    -0.026 A 
ATOM     42  C   UNL     1      -8.768  -2.529  -3.583  1.00  0.00    +0.025 A 
ATOM     43  C   UNL     1      -7.044  -3.290  -5.073  1.00  0.00    +0.025 A 
ATOM     44  C   UNL     1      -9.695  -2.957  -4.521  1.00  0.00    +0.111 A 
ATOM     45  C   UNL     1      -8.046  -3.685  -5.946  1.00  0.00    +0.111 A 
ATOM     46  N   UNL     1      -9.364  -3.536  -5.694  1.00  0.00    -0.265 NA
ENDBRANCH  40  41
ENDBRANCH  36  40
ENDBRANCH  27  29
ENDBRANCH   4  23
TORSDOF 10
