REMARK SMILES C=C1[C@H]([C@@H](C)[C@H]2CC=C(C)C(=O)O2)CC[C@]2(C)[C@H]1C[C@]1(O)C=C3C=CC(=O)OC(C)(C)[C@@H]3[C@H](OC(C)=O)C[C@@H]21
REMARK SMILES IDX 1 1 2 2 3 3 14 4 15 5 16 6 17 7 18 8 19 9 20 10 39 11 4 12
REMARK SMILES IDX 5 13 6 14 7 15 13 16 8 17 11 18 9 19 12 20 10 21 38 22 33 23
REMARK SMILES IDX 34 25 35 26 37 27 36 28 21 29 22 31 23 32 24 33 25 34 32 36
REMARK SMILES IDX 29 38 30 39 31 40 28 41 26 42 27 43
REMARK H PARENT 21 30
REMARK Flexibility Score:   54.800
ROOT
ATOM      1  C   UNL     1       2.592   3.531   1.016  1.00  0.00    +0.008 C 
ATOM      2  C   UNL     1       2.155   2.292   0.725  1.00  0.00    -0.070 C 
ATOM      3  C   UNL     1       3.050   1.095   0.376  1.00  0.00    +0.021 C 
ATOM      4  C   UNL     1       2.684   0.711  -1.071  1.00  0.00    +0.009 C 
ATOM      5  C   UNL     1       1.217   0.280  -1.166  1.00  0.00    +0.008 C 
ATOM      6  C   UNL     1       0.193   1.348  -0.696  1.00  0.00    -0.020 C 
ATOM      7  C   UNL     1       0.028   2.402  -1.807  1.00  0.00    +0.012 C 
ATOM      8  C   UNL     1       0.659   2.056   0.610  1.00  0.00    +0.024 C 
ATOM      9  C   UNL     1       0.028   1.231   1.735  1.00  0.00    +0.048 C 
ATOM     10  C   UNL     1      -1.393   1.008   1.197  1.00  0.00    +0.087 C 
ATOM     11  C   UNL     1      -1.145   0.607  -0.281  1.00  0.00    +0.035 C 
ENDROOT
BRANCH   3  12
ATOM     12  C   UNL     1       4.589   1.276   0.638  1.00  0.00    +0.034 C 
ATOM     13  C   UNL     1       4.861   1.391   2.154  1.00  0.00    +0.012 C 
BRANCH  12  14
ATOM     14  C   UNL     1       5.528   0.176   0.063  1.00  0.00    +0.184 C 
ATOM     15  C   UNL     1       5.164  -1.255   0.461  1.00  0.00    +0.073 C 
ATOM     16  O   UNL     1       5.602   0.320  -1.370  1.00  0.00    -0.458 OA
ATOM     17  C   UNL     1       6.040  -2.210  -0.282  1.00  0.00    -0.012 C 
ATOM     18  C   UNL     1       6.314  -0.576  -2.101  1.00  0.00    +0.333 C 
ATOM     19  C   UNL     1       6.605  -1.885  -1.456  1.00  0.00    +0.030 C 
ATOM     20  O   UNL     1       6.669  -0.334  -3.248  1.00  0.00    -0.247 OA
ATOM     21  C   UNL     1       7.490  -2.816  -2.227  1.00  0.00    +0.052 C 
ENDBRANCH  12  14
ENDBRANCH   3  12
BRANCH  11  22
ATOM     22  C   UNL     1      -2.350   0.805  -1.212  1.00  0.00    +0.053 C 
BRANCH  22  23
ATOM     23  C   UNL     1      -3.590  -0.073  -0.915  1.00  0.00    +0.188 CG1
ATOM     24  G   UNL     1      -4.216   0.165   0.495  1.00  0.00    +0.000 G1
BRANCH  23  25
ATOM     25  O   UNL     1      -3.265  -1.473  -1.069  1.00  0.00    -0.462 OA
BRANCH  25  26
ATOM     26  C   UNL     1      -3.348  -1.986  -2.326  1.00  0.00    +0.302 C 
ATOM     27  O   UNL     1      -3.618  -1.356  -3.338  1.00  0.00    -0.253 OA
ATOM     28  C   UNL     1      -3.043  -3.453  -2.297  1.00  0.00    +0.139 C 
ENDBRANCH  25  26
ENDBRANCH  23  25
ENDBRANCH  22  23
ENDBRANCH  11  22
BRANCH  10  29
ATOM     29  O   UNL     1      -2.104   2.239   1.286  1.00  0.00    -0.385 OA
ATOM     30  H   UNL     1      -2.243   2.424   2.231  1.00  0.00    +0.211 HD
ENDBRANCH  10  29
BRANCH  10  31
ATOM     31  C   UNL     1      -2.161  -0.046   1.940  1.00  0.00    +0.012 C 
ATOM     32  C   UNL     1      -3.384  -0.508   1.595  1.00  0.00    -0.038 C 
BRANCH  32  33
ATOM     33  C   UNL     1      -3.850  -1.703   2.275  1.00  0.00    +0.011 C 
ATOM     34  C   UNL     1      -4.807  -2.568   1.918  1.00  0.00    +0.094 CG0
ATOM     35  G   UNL     1      -5.670  -2.606   0.736  1.00  0.00    +0.000 G0
ENDBRANCH  32  33
BRANCH  32  36
ATOM     36  C   UNL     1      -4.216   0.165   0.495  1.00  0.00    +0.103 CG1
ATOM     37  G   UNL     1      -3.590  -0.073  -0.915  1.00  0.00    +0.000 G1
BRANCH  36  38
ATOM     38  C   UNL     1      -5.758  -0.118   0.560  1.00  0.00    +0.117 C 
ATOM     39  C   UNL     1      -6.515   0.762  -0.467  1.00  0.00    +0.057 C 
ATOM     40  C   UNL     1      -6.401   0.224   1.923  1.00  0.00    +0.057 C 
BRANCH  38  41
ATOM     41  O   UNL     1      -6.072  -1.468   0.149  1.00  0.00    -0.456 OA
BRANCH  41  42
ATOM     42  C   UNL     1      -5.670  -2.606   0.736  1.00  0.00    +0.331 CG0
ATOM     43  O   UNL     1      -6.054  -3.698   0.326  1.00  0.00    -0.247 OA
ATOM     44  G   UNL     1      -4.807  -2.568   1.918  1.00  0.00    +0.000 G0
ENDBRANCH  41  42
ENDBRANCH  38  41
ENDBRANCH  36  38
ENDBRANCH  32  36
ENDBRANCH  10  31
TORSDOF 5
