REMARK SMILES Cn1cnc(-c2cccc(NC(=O)Nc3cc(C(F)(F)F)ccc3F)c2)c1-c1cc2c(N)ncnc2s1
REMARK SMILES IDX 6 1 7 2 8 3 9 4 10 5 26 6 5 7 2 8 3 9 27 10 4 11 1 12 28 13
REMARK SMILES IDX 29 14 37 15 30 16 36 17 31 18 35 19 33 20 34 21 32 22 11 25
REMARK SMILES IDX 12 26 13 27 14 28 15 31 16 32 24 33 17 34 23 35 22 36 25 37
REMARK SMILES IDX 18 38 19 39 20 40 21 41
REMARK H PARENT 32 23 32 24 11 29 14 30
ROOT
ATOM      1  C   UNL     1      -1.311   1.694   0.451  1.00  0.00    +0.004 A 
ATOM      2  C   UNL     1      -1.254   1.907  -0.929  1.00  0.00    +0.010 A 
ATOM      3  C   UNL     1      -0.114   1.544  -1.647  1.00  0.00    +0.003 A 
ATOM      4  C   UNL     1       0.984   0.979  -0.991  1.00  0.00    +0.026 A 
ATOM      5  C   UNL     1       0.957   0.781   0.389  1.00  0.00    +0.043 A 
ATOM      6  C   UNL     1      -0.193   1.148   1.102  1.00  0.00    +0.036 A 
ENDROOT
BRANCH   1   7
ATOM      7  C   UNL     1      -2.482   2.045   1.241  1.00  0.00    +0.097 A 
ATOM      8  N   UNL     1      -4.505   2.356   1.998  1.00  0.00    -0.333 N 
ATOM      9  C   UNL     1      -3.589   2.784   2.917  1.00  0.00    +0.200 A 
ATOM     10  C   UNL     1      -3.819   1.862   0.907  1.00  0.00    +0.086 A 
ATOM     11  N   UNL     1      -2.360   2.592   2.501  1.00  0.00    -0.236 NA
ATOM     12  C   UNL     1      -5.932   2.371   2.212  1.00  0.00    +0.151 C 
BRANCH  10  13
ATOM     13  C   UNL     1      -4.425   1.253  -0.244  1.00  0.00    +0.056 A 
ATOM     14  C   UNL     1      -4.153  -0.006  -0.744  1.00  0.00    +0.036 A 
ATOM     15  S   UNL     1      -5.573   2.072  -1.211  1.00  0.00    -0.114 S 
ATOM     16  C   UNL     1      -4.904  -0.312  -1.928  1.00  0.00    +0.054 A 
ATOM     17  C   UNL     1      -5.724   0.749  -2.273  1.00  0.00    +0.129 A 
ATOM     18  C   UNL     1      -4.963  -1.434  -2.770  1.00  0.00    +0.135 A 
ATOM     19  N   UNL     1      -6.567   0.802  -3.317  1.00  0.00    -0.225 NA
ATOM     20  N   UNL     1      -5.797  -1.420  -3.826  1.00  0.00    -0.219 NA
ATOM     21  C   UNL     1      -6.540  -0.322  -4.040  1.00  0.00    +0.225 A 
BRANCH  18  22
ATOM     22  N   UNL     1      -4.208  -2.566  -2.584  1.00  0.00    -0.383 N 
ATOM     23  H   UNL     1      -4.318  -3.300  -3.270  1.00  0.00    +0.158 HD
ATOM     24  H   UNL     1      -3.523  -2.644  -1.852  1.00  0.00    +0.158 HD
ENDBRANCH  18  22
ENDBRANCH  10  13
ENDBRANCH   1   7
BRANCH   5  25
ATOM     25  N   UNL     1       2.027   0.243   1.134  1.00  0.00    -0.308 N 
ATOM     26  C   UNL     1       3.229  -0.257   0.657  1.00  0.00    +0.323 C 
ATOM     27  O   UNL     1       3.524  -0.373  -0.525  1.00  0.00    -0.248 OA
ATOM     28  N   UNL     1       4.055  -0.617   1.709  1.00  0.00    -0.305 N 
ATOM     29  H   UNL     1       1.880   0.193   2.131  1.00  0.00    +0.171 HD
ATOM     30  H   UNL     1       3.735  -0.408   2.645  1.00  0.00    +0.171 HD
BRANCH  28  31
ATOM     31  C   UNL     1       5.336  -1.208   1.646  1.00  0.00    +0.079 A 
ATOM     32  C   UNL     1       5.983  -1.579   0.465  1.00  0.00    +0.042 A 
ATOM     33  C   UNL     1       5.990  -1.434   2.863  1.00  0.00    +0.146 A 
ATOM     34  C   UNL     1       7.263  -2.168   0.498  1.00  0.00    +0.058 A 
ATOM     35  C   UNL     1       7.256  -2.008   2.919  1.00  0.00    +0.042 A 
ATOM     36  C   UNL     1       7.895  -2.372   1.735  1.00  0.00    +0.016 A 
ATOM     37  F   UNL     1       5.384  -1.089   4.011  1.00  0.00    -0.205 F 
BRANCH  34  38
ATOM     38  C   UNL     1       7.948  -2.545  -0.796  1.00  0.00    +0.416 C 
ATOM     39  F   UNL     1       7.128  -3.208  -1.656  1.00  0.00    -0.166 F 
ATOM     40  F   UNL     1       9.027  -3.359  -0.612  1.00  0.00    -0.166 F 
ATOM     41  F   UNL     1       8.413  -1.460  -1.473  1.00  0.00    -0.166 F 
ENDBRANCH  34  38
ENDBRANCH  28  31
ENDBRANCH   5  25
TORSDOF 6
