REMARK SMILES COc1cc(-c2ccnc(Nc3ccc(N4CCOCC4)cc3)n2)ccc1C(=O)NCC#N
REMARK SMILES IDX 6 1 7 2 8 3 9 4 10 5 24 6 5 7 3 8 4 9 27 10 26 11 25 12 2 13
REMARK SMILES IDX 1 14 28 15 29 16 30 17 31 19 32 20 33 21 11 22 12 24 13 25
REMARK SMILES IDX 23 26 14 27 22 28 15 29 16 30 17 31 21 32 18 33 20 34 19 35
REMARK H PARENT 30 18 11 23
ROOT
ATOM      1  C   UNL     1       2.060  -0.527  -0.566  1.00  0.00    +0.076 A 
ATOM      2  C   UNL     1       2.000  -0.783  -1.920  1.00  0.00    +0.049 A 
ATOM      3  C   UNL     1       0.744  -0.804  -2.470  1.00  0.00    +0.117 A 
ATOM      4  N   UNL     1      -0.377  -0.590  -1.764  1.00  0.00    -0.221 NA
ATOM      5  C   UNL     1      -0.246  -0.353  -0.453  1.00  0.00    +0.227 A 
ATOM      6  N   UNL     1       0.945  -0.320   0.169  1.00  0.00    -0.213 NA
ENDROOT
BRANCH   1   7
ATOM      7  C   UNL     1       3.332  -0.470   0.181  1.00  0.00    +0.004 A 
ATOM      8  C   UNL     1       5.704   0.180   0.349  1.00  0.00    +0.132 A 
ATOM      9  C   UNL     1       4.490   0.124  -0.360  1.00  0.00    +0.057 A 
ATOM     10  C   UNL     1       5.772  -0.381   1.641  1.00  0.00    +0.081 A 
ATOM     11  C   UNL     1       4.619  -0.966   2.190  1.00  0.00    +0.018 A 
ATOM     12  C   UNL     1       3.421  -1.005   1.474  1.00  0.00    +0.011 A 
BRANCH   8  13
ATOM     13  O   UNL     1       6.844   0.753  -0.158  1.00  0.00    -0.496 OA
ATOM     14  C   UNL     1       6.759   1.438  -1.404  1.00  0.00    +0.278 C 
ENDBRANCH   8  13
BRANCH  10  15
ATOM     15  C   UNL     1       6.998  -0.404   2.507  1.00  0.00    +0.255 C 
ATOM     16  O   UNL     1       6.968  -0.909   3.626  1.00  0.00    -0.269 OA
ATOM     17  N   UNL     1       8.147   0.154   2.008  1.00  0.00    -0.339 N 
ATOM     18  H   UNL     1       8.127   0.561   1.077  1.00  0.00    +0.164 HD
BRANCH  17  19
ATOM     19  C   UNL     1       9.371   0.173   2.780  1.00  0.00    +0.237 C 
ATOM     20  C   UNL     1      10.473   0.813   2.047  1.00  0.00    +0.084 C 
ATOM     21  N   UNL     1      11.327   1.322   1.446  1.00  0.00    -0.196 NA
ENDBRANCH  17  19
ENDBRANCH  10  15
ENDBRANCH   1   7
BRANCH   5  22
ATOM     22  N   UNL     1      -1.340  -0.119   0.373  1.00  0.00    -0.324 N 
ATOM     23  H   UNL     1      -1.011   0.043   1.313  1.00  0.00    +0.170 HD
BRANCH  22  24
ATOM     24  C   UNL     1      -2.721  -0.067   0.169  1.00  0.00    +0.041 A 
ATOM     25  C   UNL     1      -3.553   0.215   1.259  1.00  0.00    +0.028 A 
ATOM     26  C   UNL     1      -3.341  -0.275  -1.061  1.00  0.00    +0.028 A 
ATOM     27  C   UNL     1      -4.948   0.280   1.119  1.00  0.00    +0.028 A 
ATOM     28  C   UNL     1      -4.738  -0.206  -1.198  1.00  0.00    +0.028 A 
ATOM     29  C   UNL     1      -5.578   0.062  -0.111  1.00  0.00    +0.037 A 
BRANCH  29  30
ATOM     30  N   UNL     1      -6.961   0.139  -0.228  1.00  0.00    -0.367 N 
ATOM     31  C   UNL     1      -7.784  -0.632   0.725  1.00  0.00    +0.145 C 
ATOM     32  C   UNL     1      -7.589   0.325  -1.548  1.00  0.00    +0.145 C 
ATOM     33  C   UNL     1      -9.219  -0.084   0.764  1.00  0.00    +0.181 C 
ATOM     34  C   UNL     1      -9.031   0.830  -1.391  1.00  0.00    +0.181 C 
ATOM     35  O   UNL     1      -9.806  -0.032  -0.545  1.00  0.00    -0.378 OA
ENDBRANCH  29  30
ENDBRANCH  22  24
ENDBRANCH   5  22
TORSDOF 7
