REMARK SMILES Cc1ccc2c(c1)C(C)(C)[C@H]1COc3ccc4c(=O)c(-c5ccccc5)c(C)oc4c3[C@H]1[NH2+]2
REMARK SMILES IDX 1 1 2 2 3 3 4 4 5 5 6 6 7 7 8 8 9 9 10 10 11 11 12 12 13 13
REMARK SMILES IDX 14 14 15 15 16 16 17 17 18 18 19 19 20 20 27 21 28 22 29 23
REMARK SMILES IDX 30 24 31 25 32 26 33 27 21 30 22 31 26 32 23 33 25 34 24 35
REMARK H PARENT 33 28 33 29
ROOT
ATOM      1  C   UNL     1      -6.618   2.078  -1.132  1.00  0.00    +0.044 C 
ATOM      2  C   UNL     1      -5.304   1.381  -0.912  1.00  0.00    -0.050 A 
ATOM      3  C   UNL     1      -4.518   1.000  -2.000  1.00  0.00    +0.009 A 
ATOM      4  C   UNL     1      -3.283   0.391  -1.788  1.00  0.00    +0.068 A 
ATOM      5  C   UNL     1      -2.827   0.172  -0.484  1.00  0.00    +0.133 A 
ATOM      6  C   UNL     1      -3.589   0.536   0.632  1.00  0.00    +0.019 A 
ATOM      7  C   UNL     1      -4.828   1.163   0.389  1.00  0.00    +0.013 A 
ATOM      8  C   UNL     1      -3.082   0.343   2.062  1.00  0.00    +0.008 C 
ATOM      9  C   UNL     1      -4.202  -0.137   3.016  1.00  0.00    +0.017 C 
ATOM     10  C   UNL     1      -2.612   1.731   2.575  1.00  0.00    +0.017 C 
ATOM     11  C   UNL     1      -1.876  -0.647   2.116  1.00  0.00    +0.101 C 
ATOM     12  C   UNL     1      -2.234  -2.138   2.104  1.00  0.00    +0.240 C 
ATOM     13  O   UNL     1      -1.090  -2.985   2.244  1.00  0.00    -0.492 OA
ATOM     14  C   UNL     1       0.078  -2.593   1.662  1.00  0.00    +0.132 A 
ATOM     15  C   UNL     1       1.126  -3.512   1.727  1.00  0.00    +0.048 A 
ATOM     16  C   UNL     1       2.362  -3.208   1.157  1.00  0.00    +0.020 A 
ATOM     17  C   UNL     1       2.546  -1.980   0.518  1.00  0.00    +0.066 A 
ATOM     18  C   UNL     1       3.834  -1.645  -0.105  1.00  0.00    +0.200 C 
ATOM     19  O   UNL     1       4.746  -2.461  -0.109  1.00  0.00    -0.288 OA
ATOM     20  C   UNL     1       3.948  -0.294  -0.723  1.00  0.00    +0.068 C 
ATOM     21  C   UNL     1       2.855   0.500  -0.734  1.00  0.00    +0.113 C 
ATOM     22  C   UNL     1       2.803   1.874  -1.350  1.00  0.00    +0.088 C 
ATOM     23  O   UNL     1       1.628   0.143  -0.189  1.00  0.00    -0.460 OA
ATOM     24  C   UNL     1       1.504  -1.061   0.456  1.00  0.00    +0.151 A 
ATOM     25  C   UNL     1       0.260  -1.355   1.043  1.00  0.00    +0.095 A 
ATOM     26  C   UNL     1      -0.885  -0.384   0.979  1.00  0.00    +0.233 C 
ATOM     27  N   UNL     1      -1.550  -0.502  -0.350  1.00  0.00    -0.307 N 
ATOM     28  H   UNL     1      -1.691  -1.491  -0.597  1.00  0.00    +0.352 HD
ATOM     29  H   UNL     1      -0.906  -0.120  -1.056  1.00  0.00    +0.352 HD
ENDROOT
BRANCH  20  30
ATOM     30  C   UNL     1       5.237   0.122  -1.303  1.00  0.00    -0.011 A 
ATOM     31  C   UNL     1       6.067   1.019  -0.617  1.00  0.00    +0.009 A 
ATOM     32  C   UNL     1       5.641  -0.369  -2.551  1.00  0.00    +0.009 A 
ATOM     33  C   UNL     1       7.279   1.426  -1.178  1.00  0.00    +0.001 A 
ATOM     34  C   UNL     1       6.854   0.039  -3.108  1.00  0.00    +0.001 A 
ATOM     35  C   UNL     1       7.670   0.938  -2.423  1.00  0.00    +0.000 A 
ENDBRANCH  20  30
TORSDOF 1
