REMARK SMILES C[NH+]1CCN(c2cccc(-c3cnn4c(N)c(-c5ccc(NC(=O)Oc6ccccc6)cc5)cnc34)c2)CC1
REMARK SMILES IDX 11 1 12 2 13 3 14 4 15 5 17 6 34 7 35 8 36 9 10 10 6 11 7 12
REMARK SMILES IDX 37 13 8 14 9 15 5 16 2 17 3 18 39 19 4 20 38 21 1 22 16 24
REMARK SMILES IDX 18 27 19 28 33 29 20 30 32 31 21 32 22 33 23 34 24 35 25 37
REMARK SMILES IDX 26 38 27 39 31 40 28 41 30 42 29 43
REMARK H PARENT 2 23 16 25 16 26 22 36
ROOT
ATOM      1  C   UNL     1      -2.288  -1.173  -0.063  1.00  0.00    +0.047 A 
ATOM      2  C   UNL     1      -2.177  -2.015  -1.188  1.00  0.00    +0.146 A 
ATOM      3  N   UNL     1      -0.959  -2.029  -1.722  1.00  0.00    -0.172 NA
ATOM      4  N   UNL     1      -0.230  -1.194  -0.920  1.00  0.00    -0.198 N 
ATOM      5  C   UNL     1       1.150  -0.879  -1.053  1.00  0.00    +0.136 C 
ATOM      6  C   UNL     1       1.697  -0.021  -0.163  1.00  0.00    +0.042 C 
ATOM      7  C   UNL     1       0.759   0.520   0.871  1.00  0.00    +0.126 C 
ATOM      8  N   UNL     1      -0.503   0.245   1.004  1.00  0.00    -0.236 NA
ATOM      9  C   UNL     1      -1.020  -0.642   0.099  1.00  0.00    +0.165 A 
ENDROOT
BRANCH   1  10
ATOM     10  C   UNL     1      -3.446  -0.881   0.767  1.00  0.00    -0.011 A 
ATOM     11  C   UNL     1      -5.874  -0.505   0.939  1.00  0.00    +0.038 A 
ATOM     12  C   UNL     1      -5.707  -0.360   2.324  1.00  0.00    +0.026 A 
ATOM     13  C   UNL     1      -4.720  -0.763   0.179  1.00  0.00    +0.034 A 
ATOM     14  C   UNL     1      -4.452  -0.473   2.927  1.00  0.00    +0.003 A 
ATOM     15  C   UNL     1      -3.327  -0.735   2.151  1.00  0.00    +0.009 A 
BRANCH  11  16
ATOM     16  N   UNL     1      -7.138  -0.374   0.362  1.00  0.00    -0.360 N 
ATOM     17  N   UNL     1      -9.743  -0.306  -0.885  1.00  0.00    -0.334 N 
ATOM     18  C   UNL     1      -9.601  -0.618   0.602  1.00  0.00    +0.283 C 
ATOM     19  C   UNL     1      -8.639   0.648  -1.332  1.00  0.00    +0.283 C 
ATOM     20  C   UNL     1      -8.215  -1.221   0.904  1.00  0.00    +0.178 C 
ATOM     21  C   UNL     1      -7.251   0.044  -1.043  1.00  0.00    +0.178 C 
ATOM     22  C   UNL     1     -11.107   0.210  -1.226  1.00  0.00    +0.332 C 
ATOM     23  H   UNL     1      -9.604  -1.189  -1.394  1.00  0.00    +0.347 HD
ENDBRANCH  11  16
ENDBRANCH   1  10
BRANCH   5  24
ATOM     24  N   UNL     1       1.824  -1.478  -2.099  1.00  0.00    -0.383 N 
ATOM     25  H   UNL     1       1.297  -2.112  -2.697  1.00  0.00    +0.158 HD
ATOM     26  H   UNL     1       2.804  -1.294  -2.274  1.00  0.00    +0.158 HD
ENDBRANCH   5  24
BRANCH   6  27
ATOM     27  C   UNL     1       3.105   0.395  -0.171  1.00  0.00    -0.013 A 
ATOM     28  C   UNL     1       4.118  -0.515   0.148  1.00  0.00    +0.011 A 
ATOM     29  C   UNL     1       3.452   1.711  -0.491  1.00  0.00    +0.011 A 
ATOM     30  C   UNL     1       5.460  -0.118   0.144  1.00  0.00    +0.027 A 
ATOM     31  C   UNL     1       4.794   2.105  -0.494  1.00  0.00    +0.027 A 
ATOM     32  C   UNL     1       5.809   1.195  -0.177  1.00  0.00    +0.044 A 
BRANCH  32  33
ATOM     33  N   UNL     1       7.131   1.669  -0.204  1.00  0.00    -0.291 N 
ATOM     34  C   UNL     1       8.289   0.982   0.062  1.00  0.00    +0.417 C 
ATOM     35  O   UNL     1       8.393  -0.194   0.378  1.00  0.00    -0.224 OA
ATOM     36  H   UNL     1       7.284   2.638  -0.448  1.00  0.00    +0.173 HD
BRANCH  34  37
ATOM     37  O   UNL     1       9.353   1.865  -0.092  1.00  0.00    -0.410 OA
BRANCH  37  38
ATOM     38  C   UNL     1      10.615   1.321   0.168  1.00  0.00    +0.132 A 
ATOM     39  C   UNL     1      11.015   1.061   1.478  1.00  0.00    +0.047 A 
ATOM     40  C   UNL     1      11.484   1.132  -0.905  1.00  0.00    +0.047 A 
ATOM     41  C   UNL     1      12.299   0.571   1.712  1.00  0.00    +0.004 A 
ATOM     42  C   UNL     1      12.767   0.642  -0.664  1.00  0.00    +0.004 A 
ATOM     43  C   UNL     1      13.172   0.360   0.642  1.00  0.00    +0.000 A 
ENDBRANCH  37  38
ENDBRANCH  34  37
ENDBRANCH  32  33
ENDBRANCH   6  27
TORSDOF 7
