REMARK SMILES CC[NH+]1CCOCCn2cc(c3ccccc32)C2=C(C(=O)NC2=O)c2cn(c3ccccc23)CC[NH+](CC)CCOCC1
REMARK SMILES IDX 9 1 10 2 11 3 12 4 13 5 14 6 15 7 16 8 17 9 8 10 7 11 6 12
REMARK SMILES IDX 5 13 4 14 3 15 2 17 1 18 43 19 18 21 19 22 23 23 20 24 22 25
REMARK SMILES IDX 24 26 21 27 25 29 26 30 33 31 27 32 32 33 28 34 31 35 29 36
REMARK SMILES IDX 30 37 34 38 35 39 36 40 37 42 38 43 39 44 40 45 41 46 42 47
REMARK H PARENT 3 16 22 28 36 41
REMARK Flexibility Score:  118.900
ROOT
ATOM      1  N   UNL     1      -0.153  -2.788   1.087  1.00  0.00    -0.345 N 
ATOM      2  C   UNL     1      -0.642  -2.022   0.046  1.00  0.00    +0.095 C 
ATOM      3  C   UNL     1      -1.726  -2.547  -0.565  1.00  0.00    +0.014 C 
ATOM      4  C   UNL     1      -1.949  -3.825   0.142  1.00  0.00    +0.008 A 
ATOM      5  C   UNL     1      -2.900  -4.815  -0.033  1.00  0.00    +0.011 A 
ATOM      6  C   UNL     1      -2.852  -5.926   0.812  1.00  0.00    +0.001 A 
ATOM      7  C   UNL     1      -1.867  -6.028   1.809  1.00  0.00    +0.002 A 
ATOM      8  C   UNL     1      -0.910  -5.023   1.981  1.00  0.00    +0.027 A 
ATOM      9  C   UNL     1      -0.957  -3.924   1.145  1.00  0.00    +0.049 A 
ENDROOT
BRANCH   1  10
ATOM     10  C   UNL     1       1.048  -2.600   1.884  1.00  0.00    +0.150 C 
BRANCH  10  11
ATOM     11  C   UNL     1       2.273  -3.175   1.161  1.00  0.00    +0.182 C 
BRANCH  11  12
ATOM     12  O   UNL     1       2.885  -2.163   0.333  1.00  0.00    -0.374 OA
BRANCH  12  13
ATOM     13  C   UNL     1       3.630  -2.757  -0.741  1.00  0.00    +0.221 C 
BRANCH  13  14
ATOM     14  C   UNL     1       4.718  -1.769  -1.176  1.00  0.00    +0.291 C 
BRANCH  14  15
ATOM     15  N   UNL     1       4.189  -0.336  -1.096  1.00  0.00    -0.331 N 
ATOM     16  H   UNL     1       3.473  -0.378  -0.342  1.00  0.00    +0.348 HD
BRANCH  15  17
ATOM     17  C   UNL     1       5.258   0.648  -0.693  1.00  0.00    +0.258 C 
ATOM     18  C   UNL     1       5.440   0.635   0.814  1.00  0.00    +0.071 C 
ENDBRANCH  15  17
BRANCH  15  19
ATOM     19  C   UNL     1       3.413   0.065  -2.336  1.00  0.00    +0.291 CG0
ATOM     20  G   UNL     1       2.473   1.254  -2.050  1.00  0.00    +0.000 G0
ENDBRANCH  15  19
ENDBRANCH  14  15
ENDBRANCH  13  14
ENDBRANCH  12  13
ENDBRANCH  11  12
ENDBRANCH  10  11
ENDBRANCH   1  10
BRANCH   3  21
ATOM     21  C   UNL     1      -2.446  -1.993  -1.673  1.00  0.00    +0.063 C 
ATOM     22  C   UNL     1      -2.964  -0.765  -1.842  1.00  0.00    +0.063 C 
ATOM     23  C   UNL     1      -2.689  -2.753  -2.922  1.00  0.00    +0.259 C 
ATOM     24  C   UNL     1      -3.509  -0.720  -3.224  1.00  0.00    +0.259 C 
ATOM     25  N   UNL     1      -3.371  -1.947  -3.758  1.00  0.00    -0.288 N 
ATOM     26  O   UNL     1      -2.285  -3.872  -3.173  1.00  0.00    -0.269 OA
ATOM     27  O   UNL     1      -3.931   0.272  -3.789  1.00  0.00    -0.269 OA
ATOM     28  H   UNL     1      -3.652  -2.204  -4.691  1.00  0.00    +0.173 HD
BRANCH  22  29
ATOM     29  C   UNL     1      -3.004   0.366  -0.955  1.00  0.00    +0.014 C 
ATOM     30  C   UNL     1      -2.835   1.655  -1.325  1.00  0.00    +0.096 C 
ATOM     31  C   UNL     1      -3.293   0.460   0.494  1.00  0.00    +0.008 A 
ATOM     32  N   UNL     1      -2.905   2.568  -0.286  1.00  0.00    -0.341 N 
ATOM     33  C   UNL     1      -3.630  -0.500   1.432  1.00  0.00    +0.011 A 
ATOM     34  C   UNL     1      -3.237   1.832   0.846  1.00  0.00    +0.049 A 
ATOM     35  C   UNL     1      -3.881  -0.085   2.742  1.00  0.00    +0.001 A 
ATOM     36  C   UNL     1      -3.499   2.246   2.139  1.00  0.00    +0.027 A 
ATOM     37  C   UNL     1      -3.817   1.273   3.092  1.00  0.00    +0.002 A 
BRANCH  32  38
ATOM     38  C   UNL     1      -2.807   4.017  -0.381  1.00  0.00    +0.183 C 
BRANCH  38  39
ATOM     39  C   UNL     1      -1.327   4.422  -0.563  1.00  0.00    +0.284 C 
BRANCH  39  40
ATOM     40  N   UNL     1      -0.456   3.781   0.528  1.00  0.00    -0.332 N 
ATOM     41  H   UNL     1      -1.030   2.979   0.841  1.00  0.00    +0.348 HD
BRANCH  40  42
ATOM     42  C   UNL     1      -0.311   4.635   1.769  1.00  0.00    +0.258 C 
ATOM     43  C   UNL     1       0.645   5.797   1.565  1.00  0.00    +0.071 C 
ENDBRANCH  40  42
BRANCH  40  44
ATOM     44  C   UNL     1       0.841   3.166   0.035  1.00  0.00    +0.291 C 
BRANCH  44  45
ATOM     45  C   UNL     1       0.601   1.805  -0.644  1.00  0.00    +0.221 C 
BRANCH  45  46
ATOM     46  O   UNL     1       1.801   1.036  -0.802  1.00  0.00    -0.370 OA
BRANCH  46  47
ATOM     47  C   UNL     1       2.473   1.254  -2.050  1.00  0.00    +0.221 CG0
ATOM     48  G   UNL     1       3.413   0.065  -2.336  1.00  0.00    +0.000 G0
ENDBRANCH  46  47
ENDBRANCH  45  46
ENDBRANCH  44  45
ENDBRANCH  40  44
ENDBRANCH  39  40
ENDBRANCH  38  39
ENDBRANCH  32  38
ENDBRANCH  22  29
ENDBRANCH   3  21
TORSDOF 2
