REMARK SMILES C[C@@]1(C(=O)[O-])CC[C@]2(C)CC[C@]3(C)C(=CC[C@@H]4[C@@]5(C)CC[C@@H](O)[C@@](C)(C(=O)[O-])[C@@H]5CC[C@]43C)[C@@H]2C1
REMARK SMILES IDX 1 1 2 2 6 3 7 4 8 5 9 6 10 7 11 8 12 9 13 10 14 11 15 12
REMARK SMILES IDX 16 13 17 14 18 15 19 16 20 17 21 18 22 19 24 20 25 21 29 22
REMARK SMILES IDX 30 23 31 24 32 25 33 26 34 27 35 28 3 29 4 30 5 31 26 32
REMARK SMILES IDX 27 33 28 34 23 35
REMARK H PARENT 23 36
ROOT
ATOM      1  C   UNL     1       5.827  -0.239   1.987  1.00  0.00    +0.018 C 
ATOM      2  C   UNL     1       5.442  -0.790   0.603  1.00  0.00    +0.008 C 
ATOM      3  C   UNL     1       5.441  -2.335   0.671  1.00  0.00    +0.013 C 
ATOM      4  C   UNL     1       4.513  -2.940  -0.382  1.00  0.00    +0.008 C 
ATOM      5  C   UNL     1       3.023  -2.554  -0.144  1.00  0.00    -0.026 C 
ATOM      6  C   UNL     1       2.380  -3.641   0.753  1.00  0.00    +0.012 C 
ATOM      7  C   UNL     1       2.317  -2.521  -1.516  1.00  0.00    +0.008 C 
ATOM      8  C   UNL     1       0.857  -2.085  -1.419  1.00  0.00    +0.012 C 
ATOM      9  C   UNL     1       0.636  -0.694  -0.752  1.00  0.00    -0.006 C 
ATOM     10  C   UNL     1       1.116   0.376  -1.778  1.00  0.00    +0.017 C 
ATOM     11  C   UNL     1       1.525  -0.514   0.492  1.00  0.00    -0.064 C 
ATOM     12  C   UNL     1       1.116   0.238   1.534  1.00  0.00    -0.027 C 
ATOM     13  C   UNL     1      -0.194   0.959   1.647  1.00  0.00    +0.032 C 
ATOM     14  C   UNL     1      -1.100   0.885   0.397  1.00  0.00    +0.006 C 
ATOM     15  C   UNL     1      -2.588   1.409   0.631  1.00  0.00    -0.025 C 
ATOM     16  C   UNL     1      -3.330   0.599   1.728  1.00  0.00    +0.012 C 
ATOM     17  C   UNL     1      -2.533   2.893   1.116  1.00  0.00    +0.010 C 
ATOM     18  C   UNL     1      -3.884   3.628   1.072  1.00  0.00    +0.033 C 
ATOM     19  C   UNL     1      -4.532   3.559  -0.315  1.00  0.00    +0.126 C 
ATOM     20  C   UNL     1      -4.708   2.094  -0.806  1.00  0.00    +0.036 C 
ATOM     21  C   UNL     1      -5.821   1.399   0.003  1.00  0.00    +0.021 C 
ATOM     22  C   UNL     1      -3.319   1.376  -0.768  1.00  0.00    +0.009 C 
ATOM     23  C   UNL     1      -3.295  -0.045  -1.365  1.00  0.00    +0.006 C 
ATOM     24  C   UNL     1      -1.853  -0.509  -1.608  1.00  0.00    +0.008 C 
ATOM     25  C   UNL     1      -0.939  -0.496  -0.350  1.00  0.00    -0.020 C 
ATOM     26  C   UNL     1      -1.398  -1.678   0.559  1.00  0.00    +0.012 C 
ATOM     27  C   UNL     1       2.908  -1.174   0.571  1.00  0.00    +0.022 C 
ATOM     28  C   UNL     1       4.062  -0.236   0.152  1.00  0.00    +0.021 C 
ENDROOT
BRANCH   2  29
ATOM     29  C   UNL     1       6.507  -0.209  -0.379  1.00  0.00    +0.047 C 
ATOM     30  O   UNL     1       6.594   1.053  -0.410  1.00  0.00    -0.550 OA
ATOM     31  O   UNL     1       7.179  -1.055  -1.036  1.00  0.00    -0.550 OA
ENDBRANCH   2  29
BRANCH  20  32
ATOM     32  C   UNL     1      -5.235   2.140  -2.285  1.00  0.00    +0.050 C 
ATOM     33  O   UNL     1      -6.091   1.272  -2.616  1.00  0.00    -0.549 OA
ATOM     34  O   UNL     1      -4.739   3.057  -3.008  1.00  0.00    -0.549 OA
ENDBRANCH  20  32
BRANCH  19  35
ATOM     35  O   UNL     1      -3.672   4.344  -1.153  1.00  0.00    -0.392 OA
ATOM     36  H   UNL     1      -3.929   4.089  -2.079  1.00  0.00    +0.210 HD
ENDBRANCH  19  35
TORSDOF 3
