REMARK SMILES CN(C)c1ccc(-c2cnn3c(-c4cccc(NC(=O)c5cccc(C(F)(F)F)c5)c4)ccnc23)cc1
REMARK SMILES IDX 13 1 14 2 15 3 16 4 17 5 31 6 12 7 8 8 9 9 35 10 10 11 34 12
REMARK SMILES IDX 11 13 33 14 32 15 7 16 4 17 5 18 37 19 6 20 36 21 2 22 1 23
REMARK SMILES IDX 3 24 18 25 19 26 20 27 21 29 22 30 30 31 23 32 25 33 24 34
REMARK SMILES IDX 26 35 27 36 28 37 29 38
REMARK H PARENT 18 28
ROOT
ATOM      1  C   UNL     1      -1.291   1.726   0.585  1.00  0.00    +0.002 A 
ATOM      2  C   UNL     1      -1.239   2.796   1.487  1.00  0.00    +0.010 A 
ATOM      3  C   UNL     1      -2.369   3.161   2.217  1.00  0.00    +0.003 A 
ATOM      4  C   UNL     1      -3.566   2.464   2.047  1.00  0.00    +0.026 A 
ATOM      5  C   UNL     1      -3.646   1.397   1.145  1.00  0.00    +0.042 A 
ATOM      6  C   UNL     1      -2.504   1.030   0.428  1.00  0.00    +0.036 A 
ENDROOT
BRANCH   1   7
ATOM      7  C   UNL     1      -0.093   1.336  -0.192  1.00  0.00    +0.076 C 
ATOM      8  C   UNL     1       3.321   0.545   0.536  1.00  0.00    +0.047 A 
ATOM      9  C   UNL     1       2.756   0.815   1.798  1.00  0.00    +0.146 A 
ATOM     10  C   UNL     1       2.274   0.721  -0.354  1.00  0.00    +0.163 A 
ATOM     11  N   UNL     1       1.467   1.138   1.745  1.00  0.00    -0.174 NA
ATOM     12  N   UNL     1       2.201   0.613  -1.720  1.00  0.00    -0.236 NA
ATOM     13  N   UNL     1       1.153   1.081   0.419  1.00  0.00    -0.214 N 
ATOM     14  C   UNL     1       1.044   0.857  -2.253  1.00  0.00    +0.116 C 
ATOM     15  C   UNL     1      -0.193   1.240  -1.531  1.00  0.00    +0.049 C 
BRANCH   8  16
ATOM     16  C   UNL     1       4.687   0.179   0.194  1.00  0.00    -0.013 A 
ATOM     17  C   UNL     1       7.396  -0.554  -0.422  1.00  0.00    +0.036 A 
ATOM     18  C   UNL     1       6.303  -1.038  -1.160  1.00  0.00    +0.026 A 
ATOM     19  C   UNL     1       7.079   0.311   0.638  1.00  0.00    +0.026 A 
ATOM     20  C   UNL     1       4.977  -0.683  -0.862  1.00  0.00    +0.011 A 
ATOM     21  C   UNL     1       5.757   0.672   0.945  1.00  0.00    +0.011 A 
BRANCH  17  22
ATOM     22  N   UNL     1       8.706  -0.910  -0.721  1.00  0.00    -0.378 N 
ATOM     23  C   UNL     1       9.009  -1.795  -1.838  1.00  0.00    +0.143 C 
ATOM     24  C   UNL     1       9.824  -0.391   0.056  1.00  0.00    +0.143 C 
ENDBRANCH  17  22
ENDBRANCH   8  16
ENDBRANCH   1   7
BRANCH   5  25
ATOM     25  N   UNL     1      -4.890   0.741   1.030  1.00  0.00    -0.322 N 
ATOM     26  C   UNL     1      -5.233  -0.246   0.123  1.00  0.00    +0.255 C 
ATOM     27  O   UNL     1      -4.558  -0.647  -0.817  1.00  0.00    -0.269 OA
ATOM     28  H   UNL     1      -5.618   1.073   1.648  1.00  0.00    +0.170 HD
BRANCH  26  29
ATOM     29  C   UNL     1      -6.597  -0.820   0.306  1.00  0.00    +0.040 A 
ATOM     30  C   UNL     1      -7.145  -1.023   1.579  1.00  0.00    +0.014 A 
ATOM     31  C   UNL     1      -7.322  -1.195  -0.832  1.00  0.00    +0.027 A 
ATOM     32  C   UNL     1      -8.420  -1.573   1.708  1.00  0.00    +0.001 A 
ATOM     33  C   UNL     1      -8.610  -1.742  -0.712  1.00  0.00    +0.056 A 
ATOM     34  C   UNL     1      -9.149  -1.929   0.571  1.00  0.00    +0.013 A 
BRANCH  33  35
ATOM     35  C   UNL     1      -9.381  -2.159  -1.941  1.00  0.00    +0.416 C 
ATOM     36  F   UNL     1      -9.082  -3.426  -2.335  1.00  0.00    -0.166 F 
ATOM     37  F   UNL     1      -9.140  -1.361  -3.017  1.00  0.00    -0.166 F 
ATOM     38  F   UNL     1     -10.731  -2.133  -1.756  1.00  0.00    -0.166 F 
ENDBRANCH  33  35
ENDBRANCH  26  29
ENDBRANCH   5  25
TORSDOF 6
