REMARK SMILES C=C1[C@H]([C@@H](C)[C@H]2CC=C(C)C(=O)O2)CC[C@@]2(C)[C@@H]3C[C@@H](OC(C)=O)[C@H]4C(C)(C)OC(=O)C[C@H]5OO[C@]3(C[C@@H]12)C[C@]54O
REMARK SMILES IDX 1 1 2 2 3 3 14 4 15 5 16 6 17 7 18 8 33 9 34 10 35 11 36 12
REMARK SMILES IDX 37 13 38 14 39 15 40 16 4 17 5 18 6 19 7 20 13 21 8 22 11 23
REMARK SMILES IDX 9 24 12 25 10 26 19 27 41 29 25 31 20 33 21 35 22 36 24 37
REMARK SMILES IDX 23 38 32 39 30 40 31 41 29 42 26 43 27 44 28 45
REMARK H PARENT 41 30
REMARK Flexibility Score:   23.800
ROOT
ATOM      1  C   UNL     1       3.419   1.597  -0.403  1.00  0.00    +0.008 C 
ATOM      2  C   UNL     1       2.659   0.490  -0.393  1.00  0.00    -0.070 C 
ATOM      3  C   UNL     1       3.157  -0.958  -0.412  1.00  0.00    +0.021 C 
ATOM      4  C   UNL     1       2.485  -1.698  -1.594  1.00  0.00    +0.009 C 
ATOM      5  C   UNL     1       0.956  -1.598  -1.554  1.00  0.00    +0.008 C 
ATOM      6  C   UNL     1       0.434  -0.134  -1.514  1.00  0.00    -0.020 C 
ATOM      7  C   UNL     1       0.688   0.516  -2.889  1.00  0.00    +0.012 C 
ATOM      8  C   UNL     1      -1.076  -0.131  -1.048  1.00  0.00    +0.035 C 
ATOM      9  C   UNL     1      -3.628  -0.311   1.647  1.00  0.00    +0.200 C 
ATOM     10  O   UNL     1      -2.935  -1.267   0.851  1.00  0.00    -0.229 OA
ATOM     11  O   UNL     1      -1.519  -1.109   1.182  1.00  0.00    -0.229 OA
ATOM     12  C   UNL     1      -1.040   0.064   0.499  1.00  0.00    +0.110 C 
ATOM     13  C   UNL     1       0.455   0.183   0.872  1.00  0.00    +0.048 C 
ATOM     14  C   UNL     1       1.144   0.660  -0.402  1.00  0.00    +0.024 C 
ATOM     15  C   UNL     1      -1.798   1.278   1.060  1.00  0.00    +0.078 C 
ATOM     16  C   UNL     1      -3.335   1.102   1.111  1.00  0.00    +0.108 C 
ENDROOT
BRANCH   3  17
ATOM     17  C   UNL     1       4.685  -1.317  -0.353  1.00  0.00    +0.034 C 
ATOM     18  C   UNL     1       5.493  -0.894  -1.586  1.00  0.00    +0.012 C 
BRANCH  17  19
ATOM     19  C   UNL     1       5.352  -0.909   0.993  1.00  0.00    +0.184 C 
ATOM     20  C   UNL     1       6.374  -1.960   1.443  1.00  0.00    +0.073 C 
ATOM     21  O   UNL     1       6.009   0.367   0.878  1.00  0.00    -0.458 OA
ATOM     22  C   UNL     1       7.084  -1.467   2.662  1.00  0.00    -0.012 C 
ATOM     23  C   UNL     1       6.719   0.848   1.930  1.00  0.00    +0.333 C 
ATOM     24  C   UNL     1       7.213  -0.154   2.913  1.00  0.00    +0.030 C 
ATOM     25  O   UNL     1       6.978   2.040   2.041  1.00  0.00    -0.247 OA
ATOM     26  C   UNL     1       7.909   0.390   4.121  1.00  0.00    +0.052 C 
ENDBRANCH  17  19
ENDBRANCH   3  17
BRANCH   8  27
ATOM     27  C   UNL     1      -1.958   0.903  -1.772  1.00  0.00    +0.053 CG0
ATOM     28  G   UNL     1      -3.472   0.802  -1.519  1.00  0.00    +0.000 G0
ENDBRANCH   8  27
BRANCH  16  29
ATOM     29  O   UNL     1      -3.779   2.069   2.089  1.00  0.00    -0.386 OA
ATOM     30  H   UNL     1      -3.330   1.902   2.938  1.00  0.00    +0.211 HD
ENDBRANCH  16  29
BRANCH  16  31
ATOM     31  C   UNL     1      -4.022   1.500  -0.233  1.00  0.00    +0.108 CG1
ATOM     32  G   UNL     1      -5.609   1.470  -0.192  1.00  0.00    +0.000 G1
BRANCH  31  33
ATOM     33  C   UNL     1      -3.472   0.802  -1.519  1.00  0.00    +0.187 CG0
ATOM     34  G   UNL     1      -1.958   0.903  -1.772  1.00  0.00    +0.000 G0
BRANCH  33  35
ATOM     35  O   UNL     1      -3.895  -0.568  -1.570  1.00  0.00    -0.462 OA
BRANCH  35  36
ATOM     36  C   UNL     1      -4.110  -1.113  -2.798  1.00  0.00    +0.302 C 
ATOM     37  O   UNL     1      -3.957  -0.535  -3.866  1.00  0.00    -0.253 OA
ATOM     38  C   UNL     1      -4.590  -2.525  -2.661  1.00  0.00    +0.139 C 
ENDBRANCH  35  36
ENDBRANCH  33  35
ENDBRANCH  31  33
ENDBRANCH  16  31
BRANCH   9  39
ATOM     39  C   UNL     1      -5.081  -0.695   1.829  1.00  0.00    +0.161 C 
BRANCH  39  40
ATOM     40  C   UNL     1      -5.866  -0.920   0.578  1.00  0.00    +0.309 C 
ATOM     41  O   UNL     1      -6.310  -2.034   0.306  1.00  0.00    -0.252 OA
BRANCH  40  42
ATOM     42  O   UNL     1      -6.152   0.124  -0.217  1.00  0.00    -0.459 OA
BRANCH  42  43
ATOM     43  C   UNL     1      -5.609   1.470  -0.192  1.00  0.00    +0.116 CG1
ATOM     44  C   UNL     1      -6.274   2.282   0.935  1.00  0.00    +0.057 C 
ATOM     45  C   UNL     1      -6.176   2.094  -1.498  1.00  0.00    +0.057 C 
ATOM     46  G   UNL     1      -4.022   1.500  -0.233  1.00  0.00    +0.000 G1
ENDBRANCH  42  43
ENDBRANCH  40  42
ENDBRANCH  39  40
ENDBRANCH   9  39
TORSDOF 5
