REMARK SMILES Cn1nnnc1-c1ccccc1-c1ccc(Cn2cnc3ccc(N(CC(=O)c4ccco4)C(=O)c4ccccc4)cc3c2=O)cc1
REMARK SMILES IDX 18 1 19 2 20 3 21 4 22 5 23 6 24 7 42 8 43 9 44 10 45 11
REMARK SMILES IDX 17 12 16 13 13 14 14 15 47 16 15 17 46 18 12 19 7 20 8 21
REMARK SMILES IDX 9 22 11 23 10 24 6 25 2 26 3 27 4 28 5 29 1 30 25 31 26 32
REMARK SMILES IDX 27 33 28 34 29 35 30 36 33 37 31 38 32 39 34 40 35 41 36 42
REMARK SMILES IDX 37 43 41 44 38 45 40 46 39 47
REMARK H PARENT
ROOT
ATOM      1  N   UNL     1       0.830   2.204  -1.624  1.00  0.00    -0.294 N 
ATOM      2  C   UNL     1       0.987   1.505  -2.796  1.00  0.00    +0.203 C 
ATOM      3  N   UNL     1       0.226   0.543  -3.195  1.00  0.00    -0.238 NA
ATOM      4  C   UNL     1      -0.842   0.178  -2.364  1.00  0.00    +0.078 A 
ATOM      5  C   UNL     1      -1.667  -0.876  -2.750  1.00  0.00    +0.031 A 
ATOM      6  C   UNL     1      -2.745  -1.271  -1.947  1.00  0.00    +0.028 A 
ATOM      7  C   UNL     1      -3.033  -0.607  -0.745  1.00  0.00    +0.045 A 
ATOM      8  C   UNL     1      -2.192   0.441  -0.353  1.00  0.00    +0.042 A 
ATOM      9  C   UNL     1      -1.112   0.825  -1.161  1.00  0.00    +0.068 A 
ATOM     10  C   UNL     1      -0.214   1.923  -0.754  1.00  0.00    +0.261 C 
ATOM     11  O   UNL     1      -0.416   2.525   0.296  1.00  0.00    -0.269 OA
ENDROOT
BRANCH   1  12
ATOM     12  C   UNL     1       1.782   3.247  -1.275  1.00  0.00    +0.162 C 
BRANCH  12  13
ATOM     13  C   UNL     1       3.027   2.670  -0.637  1.00  0.00    -0.028 A 
ATOM     14  C   UNL     1       5.315   1.492   0.550  1.00  0.00    -0.018 A 
ATOM     15  C   UNL     1       4.146   1.709   1.295  1.00  0.00    +0.009 A 
ATOM     16  C   UNL     1       5.324   1.898  -0.794  1.00  0.00    +0.009 A 
ATOM     17  C   UNL     1       3.015   2.283   0.709  1.00  0.00    +0.006 A 
ATOM     18  C   UNL     1       4.195   2.476  -1.383  1.00  0.00    +0.006 A 
BRANCH  14  19
ATOM     19  C   UNL     1       6.503   0.856   1.155  1.00  0.00    -0.007 A 
ATOM     20  C   UNL     1       6.479  -0.426   1.758  1.00  0.00    +0.029 A 
ATOM     21  C   UNL     1       7.647  -0.935   2.356  1.00  0.00    +0.013 A 
ATOM     22  C   UNL     1       8.838  -0.212   2.339  1.00  0.00    +0.001 A 
ATOM     23  C   UNL     1       7.723   1.565   1.153  1.00  0.00    +0.009 A 
ATOM     24  C   UNL     1       8.877   1.037   1.734  1.00  0.00    +0.001 A 
BRANCH  20  25
ATOM     25  C   UNL     1       5.281  -1.263   1.820  1.00  0.00    +0.182 A 
ATOM     26  N   UNL     1       4.567  -1.764   0.761  1.00  0.00    -0.229 N 
ATOM     27  N   UNL     1       3.537  -2.503   1.208  1.00  0.00    -0.045 NA
ATOM     28  N   UNL     1       3.634  -2.470   2.527  1.00  0.00    -0.023 NA
ATOM     29  N   UNL     1       4.715  -1.724   2.921  1.00  0.00    -0.108 NA
ATOM     30  C   UNL     1       4.810  -1.671  -0.651  1.00  0.00    +0.178 C 
ENDBRANCH  20  25
ENDBRANCH  14  19
ENDBRANCH  12  13
ENDBRANCH   1  12
BRANCH   7  31
ATOM     31  N   UNL     1      -4.130  -1.016   0.074  1.00  0.00    -0.300 N 
BRANCH  31  32
ATOM     32  C   UNL     1      -4.462  -2.445   0.151  1.00  0.00    +0.210 C 
BRANCH  32  33
ATOM     33  C   UNL     1      -5.706  -2.777  -0.680  1.00  0.00    +0.217 C 
ATOM     34  O   UNL     1      -6.060  -2.075  -1.631  1.00  0.00    -0.289 OA
BRANCH  33  35
ATOM     35  C   UNL     1      -6.393  -4.005  -0.333  1.00  0.00    +0.171 A 
ATOM     36  C   UNL     1      -7.560  -4.560  -0.825  1.00  0.00    +0.054 A 
ATOM     37  O   UNL     1      -5.864  -4.832   0.619  1.00  0.00    -0.461 OA
ATOM     38  C   UNL     1      -7.758  -5.776  -0.130  1.00  0.00    +0.043 A 
ATOM     39  C   UNL     1      -6.699  -5.896   0.739  1.00  0.00    +0.196 A 
ENDBRANCH  33  35
ENDBRANCH  32  33
ENDBRANCH  31  32
BRANCH  31  40
ATOM     40  C   UNL     1      -4.897  -0.171   0.892  1.00  0.00    +0.258 C 
ATOM     41  O   UNL     1      -5.576  -0.589   1.830  1.00  0.00    -0.269 OA
BRANCH  40  42
ATOM     42  C   UNL     1      -5.009   1.272   0.566  1.00  0.00    +0.040 A 
ATOM     43  C   UNL     1      -4.906   2.209   1.600  1.00  0.00    +0.014 A 
ATOM     44  C   UNL     1      -5.281   1.694  -0.742  1.00  0.00    +0.014 A 
ATOM     45  C   UNL     1      -5.025   3.570   1.316  1.00  0.00    +0.001 A 
ATOM     46  C   UNL     1      -5.400   3.056  -1.019  1.00  0.00    +0.001 A 
ATOM     47  C   UNL     1      -5.266   3.992   0.008  1.00  0.00    +0.000 A 
ENDBRANCH  40  42
ENDBRANCH  31  40
ENDBRANCH   7  31
TORSDOF 10
