REMARK SMILES COc1ccc(C(=O)[NH+]2Cc3c(c([O-])n(Cc4cc(C(F)(F)F)cc(C(F)(F)F)c4)c3[O-])C23CC[NH2+]CC3)cc1OC
REMARK SMILES IDX 9 1 10 2 11 3 12 4 13 5 14 6 15 7 31 8 32 9 33 10 34 11
REMARK SMILES IDX 35 12 36 13 37 14 38 15 7 19 8 20 6 21 3 22 4 23 40 24 5 25
REMARK SMILES IDX 39 26 2 27 1 28 41 29 42 30 16 31 17 32 18 33 30 34 19 35
REMARK SMILES IDX 25 36 24 37 20 38 21 39 22 40 23 41 26 42 27 43 28 44 29 45
REMARK H PARENT 9 16 36 17 36 18
ROOT
ATOM      1  N   UNL     1      -1.442   1.459   1.994  1.00  0.00    -0.255 N 
ATOM      2  C   UNL     1      -0.752   2.330   0.917  1.00  0.00    +0.309 C 
ATOM      3  C   UNL     1       0.033   1.328   0.212  1.00  0.00    +0.026 A 
ATOM      4  C   UNL     1       0.053   0.092   0.843  1.00  0.00    +0.032 A 
ATOM      5  C   UNL     1       0.724  -0.833   0.087  1.00  0.00    -0.027 A 
ATOM      6  O   UNL     1       0.966  -2.021   0.214  1.00  0.00    -0.860 OA
ATOM      7  N   UNL     1       1.176  -0.067  -1.025  1.00  0.00    -0.363 N 
ATOM      8  C   UNL     1       0.684   1.265  -0.983  1.00  0.00    -0.028 A 
ATOM      9  O   UNL     1       0.868   2.058  -1.883  1.00  0.00    -0.860 OA
ATOM     10  C   UNL     1      -0.689   0.096   2.118  1.00  0.00    +0.143 C 
ATOM     11  C   UNL     1       0.277   0.187   3.310  1.00  0.00    +0.136 C 
ATOM     12  C   UNL     1       1.185  -1.040   3.399  1.00  0.00    +0.267 C 
ATOM     13  N   UNL     1       0.545  -2.242   2.823  1.00  0.00    -0.346 N 
ATOM     14  C   UNL     1      -0.919  -2.343   2.884  1.00  0.00    +0.267 C 
ATOM     15  C   UNL     1      -1.623  -1.108   2.307  1.00  0.00    +0.136 C 
ATOM     16  H   UNL     1      -1.332   1.974   2.866  1.00  0.00    +0.358 HD
ATOM     17  H   UNL     1       1.026  -3.107   3.091  1.00  0.00    +0.346 HD
ATOM     18  H   UNL     1       0.787  -2.225   1.779  1.00  0.00    +0.346 HD
ENDROOT
BRANCH   1  19
ATOM     19  C   UNL     1      -2.881   1.434   1.877  1.00  0.00    +0.345 C 
ATOM     20  O   UNL     1      -3.377   1.724   2.955  1.00  0.00    -0.226 OA
BRANCH  19  21
ATOM     21  C   UNL     1      -3.720   1.120   0.685  1.00  0.00    +0.083 A 
ATOM     22  C   UNL     1      -5.451   0.554  -1.470  1.00  0.00    +0.160 A 
ATOM     23  C   UNL     1      -5.957   1.080  -0.279  1.00  0.00    +0.051 A 
ATOM     24  C   UNL     1      -4.069   0.314  -1.584  1.00  0.00    +0.161 A 
ATOM     25  C   UNL     1      -5.098   1.363   0.788  1.00  0.00    +0.022 A 
ATOM     26  C   UNL     1      -3.218   0.584  -0.503  1.00  0.00    +0.068 A 
BRANCH  22  27
ATOM     27  O   UNL     1      -6.215   0.237  -2.563  1.00  0.00    -0.493 OA
ATOM     28  C   UNL     1      -7.584   0.611  -2.549  1.00  0.00    +0.278 C 
ENDBRANCH  22  27
BRANCH  24  29
ATOM     29  O   UNL     1      -3.635  -0.215  -2.775  1.00  0.00    -0.493 OA
ATOM     30  C   UNL     1      -2.245  -0.073  -3.078  1.00  0.00    +0.278 C 
ENDBRANCH  24  29
ENDBRANCH  19  21
ENDBRANCH   1  19
BRANCH   7  31
ATOM     31  C   UNL     1       2.018  -0.598  -2.110  1.00  0.00    +0.155 C 
BRANCH  31  32
ATOM     32  C   UNL     1       3.493  -0.516  -1.766  1.00  0.00    -0.027 A 
ATOM     33  C   UNL     1       4.156  -1.617  -1.207  1.00  0.00    +0.018 A 
ATOM     34  C   UNL     1       4.201   0.679  -1.957  1.00  0.00    +0.018 A 
ATOM     35  C   UNL     1       5.507  -1.540  -0.841  1.00  0.00    +0.056 A 
ATOM     36  C   UNL     1       5.555   0.783  -1.608  1.00  0.00    +0.056 A 
ATOM     37  C   UNL     1       6.196  -0.334  -1.044  1.00  0.00    +0.026 A 
BRANCH  35  38
ATOM     38  C   UNL     1       6.175  -2.722  -0.187  1.00  0.00    +0.416 C 
ATOM     39  F   UNL     1       5.841  -2.848   1.130  1.00  0.00    -0.166 F 
ATOM     40  F   UNL     1       7.537  -2.653  -0.212  1.00  0.00    -0.166 F 
ATOM     41  F   UNL     1       5.858  -3.913  -0.766  1.00  0.00    -0.166 F 
ENDBRANCH  35  38
BRANCH  36  42
ATOM     42  C   UNL     1       6.288   2.089  -1.783  1.00  0.00    +0.416 C 
ATOM     43  F   UNL     1       6.153   2.914  -0.707  1.00  0.00    -0.166 F 
ATOM     44  F   UNL     1       5.890   2.807  -2.868  1.00  0.00    -0.166 F 
ATOM     45  F   UNL     1       7.635   1.915  -1.937  1.00  0.00    -0.166 F 
ENDBRANCH  36  42
ENDBRANCH  31  32
ENDBRANCH   7  31
TORSDOF 8
