REMARK SMILES Cc1ccc(C)n1-c1[n-]nc(Nc2ccccc2)c1C(=O)Nc1ccc2c(c1)C(=O)c1ccccc1C2=O
REMARK SMILES IDX 8 1 9 2 10 3 11 4 19 5 7 6 2 7 3 8 4 9 5 10 1 11 6 12 20 13
REMARK SMILES IDX 21 14 22 15 23 17 24 18 28 19 25 20 27 21 26 22 29 23 37 24
REMARK SMILES IDX 30 25 31 26 36 27 38 28 32 29 35 30 33 31 34 32 12 33 13 35
REMARK SMILES IDX 14 36 18 37 15 38 17 39 16 40
REMARK H PARENT 22 16 12 34
ROOT
ATOM      1  C   UNL     1      -3.714  -1.513  -1.591  1.00  0.00    -0.021 A 
ATOM      2  N   UNL     1      -4.593  -2.227  -0.852  1.00  0.00    -0.351 NA
ATOM      3  N   UNL     1      -4.290  -2.011   0.439  1.00  0.00    -0.240 NA
ATOM      4  C   UNL     1      -3.269  -1.137   0.488  1.00  0.00    +0.142 A 
ATOM      5  C   UNL     1      -2.765  -0.908  -0.786  1.00  0.00    +0.083 A 
ENDROOT
BRANCH   1   6
ATOM      6  N   UNL     1      -3.722  -1.501  -3.109  1.00  0.00    -0.422 N 
ATOM      7  C   UNL     1      -3.917  -0.394  -3.922  1.00  0.00    -0.064 A 
ATOM      8  C   UNL     1      -3.803  -0.809  -5.236  1.00  0.00    -0.001 A 
ATOM      9  C   UNL     1      -3.602  -2.206  -5.232  1.00  0.00    -0.001 A 
ATOM     10  C   UNL     1      -3.587  -2.622  -3.915  1.00  0.00    -0.064 A 
ATOM     11  C   UNL     1      -4.230   0.961  -3.396  1.00  0.00    +0.039 C 
ATOM     12  C   UNL     1      -3.443  -3.990  -3.350  1.00  0.00    +0.039 C 
ENDBRANCH   1   6
BRANCH   5  13
ATOM     13  C   UNL     1      -1.558  -0.260  -1.198  1.00  0.00    +0.259 C 
ATOM     14  O   UNL     1      -1.361   0.398  -2.219  1.00  0.00    -0.269 OA
ATOM     15  N   UNL     1      -0.552  -0.506  -0.265  1.00  0.00    -0.322 N 
ATOM     16  H   UNL     1      -0.840  -1.059   0.538  1.00  0.00    +0.170 HD
BRANCH  15  17
ATOM     17  C   UNL     1       0.770  -0.025  -0.245  1.00  0.00    +0.042 A 
ATOM     18  C   UNL     1       1.348   0.733  -1.265  1.00  0.00    +0.027 A 
ATOM     19  C   UNL     1       1.532  -0.324   0.892  1.00  0.00    +0.039 A 
ATOM     20  C   UNL     1       2.665   1.192  -1.152  1.00  0.00    +0.015 A 
ATOM     21  C   UNL     1       2.849   0.140   1.011  1.00  0.00    +0.036 A 
ATOM     22  C   UNL     1       3.416   0.897  -0.011  1.00  0.00    +0.034 A 
ATOM     23  C   UNL     1       3.627  -0.175   2.227  1.00  0.00    +0.194 C 
ATOM     24  C   UNL     1       4.802   1.394   0.103  1.00  0.00    +0.194 C 
ATOM     25  O   UNL     1       3.136  -0.837   3.134  1.00  0.00    -0.289 OA
ATOM     26  C   UNL     1       5.014   0.321   2.341  1.00  0.00    +0.034 A 
ATOM     27  C   UNL     1       5.580   1.077   1.317  1.00  0.00    +0.034 A 
ATOM     28  O   UNL     1       5.305   2.061  -0.794  1.00  0.00    -0.289 OA
ATOM     29  C   UNL     1       5.762   0.027   3.488  1.00  0.00    +0.013 A 
ATOM     30  C   UNL     1       6.897   1.541   1.437  1.00  0.00    +0.013 A 
ATOM     31  C   UNL     1       7.074   0.490   3.606  1.00  0.00    +0.001 A 
ATOM     32  C   UNL     1       7.641   1.247   2.581  1.00  0.00    +0.001 A 
ENDBRANCH  15  17
ENDBRANCH   5  13
BRANCH   4  33
ATOM     33  N   UNL     1      -2.881  -0.736   1.763  1.00  0.00    -0.340 N 
ATOM     34  H   UNL     1      -3.348  -1.270   2.490  1.00  0.00    +0.168 HD
BRANCH  33  35
ATOM     35  C   UNL     1      -2.240   0.419   2.239  1.00  0.00    +0.040 A 
ATOM     36  C   UNL     1      -1.544   0.354   3.454  1.00  0.00    +0.026 A 
ATOM     37  C   UNL     1      -2.199   1.617   1.518  1.00  0.00    +0.026 A 
ATOM     38  C   UNL     1      -0.824   1.452   3.933  1.00  0.00    +0.002 A 
ATOM     39  C   UNL     1      -1.483   2.719   1.994  1.00  0.00    +0.002 A 
ATOM     40  C   UNL     1      -0.793   2.635   3.200  1.00  0.00    +0.000 A 
ENDBRANCH  33  35
ENDBRANCH   4  33
TORSDOF 5
