REMARK SMILES Cc1cc(-c2ccnc(Nc3ccc(N4CCOCC4)cc3)n2)ccc1C(=O)NCC#N
REMARK SMILES IDX 5 1 6 2 7 3 8 4 9 5 23 6 4 7 2 8 3 9 26 10 25 11 24 12 1 13
REMARK SMILES IDX 27 14 28 15 29 16 30 18 31 19 32 20 10 21 11 23 12 24 22 25
REMARK SMILES IDX 13 26 21 27 14 28 15 29 16 30 20 31 17 32 19 33 18 34
REMARK H PARENT 29 17 10 22
ROOT
ATOM      1  C   UNL     1       2.106  -1.686   0.956  1.00  0.00    +0.076 A 
ATOM      2  C   UNL     1       1.724  -2.839   1.609  1.00  0.00    +0.049 A 
ATOM      3  C   UNL     1       0.374  -3.042   1.729  1.00  0.00    +0.117 A 
ATOM      4  N   UNL     1      -0.549  -2.192   1.249  1.00  0.00    -0.221 NA
ATOM      5  C   UNL     1      -0.109  -1.090   0.629  1.00  0.00    +0.227 A 
ATOM      6  N   UNL     1       1.196  -0.809   0.472  1.00  0.00    -0.213 NA
ENDROOT
BRANCH   1   7
ATOM      7  C   UNL     1       3.521  -1.315   0.743  1.00  0.00    +0.001 A 
ATOM      8  C   UNL     1       5.260   0.434   0.599  1.00  0.00    -0.038 A 
ATOM      9  C   UNL     1       3.922   0.036   0.784  1.00  0.00    +0.014 A 
ATOM     10  C   UNL     1       6.216  -0.555   0.318  1.00  0.00    +0.042 A 
ATOM     11  C   UNL     1       5.845  -1.905   0.289  1.00  0.00    +0.015 A 
ATOM     12  C   UNL     1       4.514  -2.277   0.495  1.00  0.00    +0.011 A 
ATOM     13  C   UNL     1       5.599   1.894   0.710  1.00  0.00    +0.045 C 
BRANCH  10  14
ATOM     14  C   UNL     1       7.644  -0.255   0.051  1.00  0.00    +0.252 C 
ATOM     15  O   UNL     1       8.530  -0.854   0.646  1.00  0.00    -0.269 OA
ATOM     16  N   UNL     1       7.885   0.672  -0.934  1.00  0.00    -0.339 N 
ATOM     17  H   UNL     1       7.113   1.055  -1.467  1.00  0.00    +0.164 HD
BRANCH  16  18
ATOM     18  C   UNL     1       9.246   1.021  -1.292  1.00  0.00    +0.237 C 
ATOM     19  C   UNL     1       9.293   2.139  -2.245  1.00  0.00    +0.084 C 
ATOM     20  N   UNL     1       9.297   3.022  -2.999  1.00  0.00    -0.196 NA
ENDBRANCH  16  18
ENDBRANCH  10  14
ENDBRANCH   1   7
BRANCH   5  21
ATOM     21  N   UNL     1      -0.976  -0.144   0.093  1.00  0.00    -0.324 N 
ATOM     22  H   UNL     1      -0.433   0.591  -0.334  1.00  0.00    +0.170 HD
BRANCH  21  23
ATOM     23  C   UNL     1      -2.366  -0.021   0.031  1.00  0.00    +0.041 A 
ATOM     24  C   UNL     1      -2.916   1.089  -0.619  1.00  0.00    +0.028 A 
ATOM     25  C   UNL     1      -3.260  -0.942   0.574  1.00  0.00    +0.028 A 
ATOM     26  C   UNL     1      -4.304   1.270  -0.714  1.00  0.00    +0.028 A 
ATOM     27  C   UNL     1      -4.650  -0.759   0.475  1.00  0.00    +0.028 A 
ATOM     28  C   UNL     1      -5.208   0.355  -0.161  1.00  0.00    +0.037 A 
BRANCH  28  29
ATOM     29  N   UNL     1      -6.580   0.551  -0.274  1.00  0.00    -0.367 N 
ATOM     30  C   UNL     1      -7.512  -0.573  -0.077  1.00  0.00    +0.145 C 
ATOM     31  C   UNL     1      -7.131   1.863   0.119  1.00  0.00    +0.145 C 
ATOM     32  C   UNL     1      -8.884  -0.246  -0.685  1.00  0.00    +0.181 C 
ATOM     33  C   UNL     1      -8.526   2.066  -0.492  1.00  0.00    +0.181 C 
ATOM     34  O   UNL     1      -9.413   0.985  -0.169  1.00  0.00    -0.378 OA
ENDBRANCH  28  29
ENDBRANCH  21  23
ENDBRANCH   5  21
TORSDOF 6
