REMARK SMILES C[NH+]1CCN(c2cccc(-c3cnn4c(N)c(-c5ccc(NC(=O)Nc6ccccc6Cl)cc5)cnc34)c2)CC1
REMARK SMILES IDX 11 1 12 2 13 3 14 4 15 5 17 6 35 7 36 8 37 9 10 10 6 11 7 12
REMARK SMILES IDX 38 13 8 14 9 15 5 16 2 17 3 18 40 19 4 20 39 21 1 22 16 24
REMARK SMILES IDX 18 27 19 28 34 29 20 30 33 31 21 32 22 33 23 34 24 35 25 36
REMARK SMILES IDX 26 39 27 40 31 41 28 42 30 43 29 44 32 45
REMARK H PARENT 2 23 16 25 16 26 22 37 25 38
ROOT
ATOM      1  C   UNL     1      -2.669  -1.221  -0.789  1.00  0.00    +0.047 A 
ATOM      2  C   UNL     1      -2.781  -1.057  -2.184  1.00  0.00    +0.146 A 
ATOM      3  N   UNL     1      -1.611  -0.880  -2.793  1.00  0.00    -0.172 NA
ATOM      4  N   UNL     1      -0.692  -0.938  -1.780  1.00  0.00    -0.198 N 
ATOM      5  C   UNL     1       0.718  -0.803  -1.904  1.00  0.00    +0.136 C 
ATOM      6  C   UNL     1       1.466  -0.876  -0.780  1.00  0.00    +0.042 C 
ATOM      7  C   UNL     1       0.703  -1.084   0.491  1.00  0.00    +0.126 C 
ATOM      8  N   UNL     1      -0.583  -1.208   0.620  1.00  0.00    -0.236 NA
ATOM      9  C   UNL     1      -1.310  -1.140  -0.538  1.00  0.00    +0.165 A 
ENDROOT
BRANCH   1  10
ATOM     10  C   UNL     1      -3.708  -1.408   0.211  1.00  0.00    -0.011 A 
ATOM     11  C   UNL     1      -5.961  -0.854   1.037  1.00  0.00    +0.038 A 
ATOM     12  C   UNL     1      -5.739  -1.736   2.104  1.00  0.00    +0.026 A 
ATOM     13  C   UNL     1      -4.922  -0.708   0.100  1.00  0.00    +0.034 A 
ATOM     14  C   UNL     1      -4.541  -2.445   2.228  1.00  0.00    +0.003 A 
ATOM     15  C   UNL     1      -3.530  -2.283   1.284  1.00  0.00    +0.009 A 
BRANCH  11  16
ATOM     16  N   UNL     1      -7.143  -0.124   0.902  1.00  0.00    -0.360 N 
ATOM     17  N   UNL     1      -9.683   1.219   0.596  1.00  0.00    -0.334 N 
ATOM     18  C   UNL     1      -8.850   1.400   1.863  1.00  0.00    +0.283 C 
ATOM     19  C   UNL     1      -8.770   0.997  -0.607  1.00  0.00    +0.283 C 
ATOM     20  C   UNL     1      -7.945   0.175   2.097  1.00  0.00    +0.178 C 
ATOM     21  C   UNL     1      -7.858  -0.225  -0.382  1.00  0.00    +0.178 C 
ATOM     22  C   UNL     1     -10.634   2.355   0.380  1.00  0.00    +0.332 C 
ATOM     23  H   UNL     1     -10.236   0.362   0.718  1.00  0.00    +0.347 HD
ENDBRANCH  11  16
ENDBRANCH   1  10
BRANCH   5  24
ATOM     24  N   UNL     1       1.211  -0.591  -3.177  1.00  0.00    -0.383 N 
ATOM     25  H   UNL     1       0.535  -0.525  -3.936  1.00  0.00    +0.158 HD
ATOM     26  H   UNL     1       2.192  -0.405  -3.338  1.00  0.00    +0.158 HD
ENDBRANCH   5  24
BRANCH   6  27
ATOM     27  C   UNL     1       2.928  -0.752  -0.748  1.00  0.00    -0.013 A 
ATOM     28  C   UNL     1       3.744  -1.735  -1.318  1.00  0.00    +0.011 A 
ATOM     29  C   UNL     1       3.528   0.352  -0.135  1.00  0.00    +0.011 A 
ATOM     30  C   UNL     1       5.137  -1.611  -1.274  1.00  0.00    +0.027 A 
ATOM     31  C   UNL     1       4.923   0.473  -0.093  1.00  0.00    +0.027 A 
ATOM     32  C   UNL     1       5.740  -0.506  -0.660  1.00  0.00    +0.042 A 
BRANCH  32  33
ATOM     33  N   UNL     1       7.150  -0.460  -0.660  1.00  0.00    -0.308 N 
ATOM     34  C   UNL     1       7.970   0.521  -0.118  1.00  0.00    +0.323 C 
ATOM     35  O   UNL     1       7.572   1.523   0.459  1.00  0.00    -0.248 OA
ATOM     36  N   UNL     1       9.302   0.203  -0.324  1.00  0.00    -0.306 N 
ATOM     37  H   UNL     1       7.614  -1.236  -1.106  1.00  0.00    +0.171 HD
ATOM     38  H   UNL     1       9.507  -0.655  -0.817  1.00  0.00    +0.171 HD
BRANCH  36  39
ATOM     39  C   UNL     1      10.453   0.931   0.068  1.00  0.00    +0.061 A 
ATOM     40  C   UNL     1      10.401   2.144   0.759  1.00  0.00    +0.028 A 
ATOM     41  C   UNL     1      11.717   0.402  -0.257  1.00  0.00    +0.064 A 
ATOM     42  C   UNL     1      11.578   2.812   1.117  1.00  0.00    +0.002 A 
ATOM     43  C   UNL     1      12.893   1.068   0.099  1.00  0.00    +0.023 A 
ATOM     44  C   UNL     1      12.822   2.276   0.788  1.00  0.00    +0.002 A 
ATOM     45 Cl   UNL     1      11.860  -1.098  -1.114  1.00  0.00    -0.082 Cl
ENDBRANCH  36  39
ENDBRANCH  32  33
ENDBRANCH   6  27
TORSDOF 6
