REMARK SMILES COc1ccc(Cn2ncc3[n-]c(-c4cc(NC(=O)Nc5c(F)cc(F)c(C)c5F)ccc4C)nc32)cc1
REMARK SMILES IDX 8 1 9 2 10 3 11 4 12 5 13 6 35 7 36 8 7 9 6 10 3 11 4 12
REMARK SMILES IDX 38 13 5 14 37 15 2 16 1 17 14 18 15 19 33 20 16 21 32 22
REMARK SMILES IDX 31 23 34 24 17 25 18 26 19 27 20 28 21 31 22 32 29 33 24 34
REMARK SMILES IDX 27 35 25 36 23 37 30 38 28 39 26 40
REMARK H PARENT 17 29 20 30
ROOT
ATOM      1  N   UNL     1       4.348  -0.028  -2.775  1.00  0.00    -0.265 N 
ATOM      2  N   UNL     1       4.232  -1.002  -3.752  1.00  0.00    -0.181 NA
ATOM      3  C   UNL     1       2.921  -1.346  -3.665  1.00  0.00    +0.139 A 
ATOM      4  C   UNL     1       2.265  -0.598  -2.700  1.00  0.00    +0.001 A 
ATOM      5  N   UNL     1       0.987  -0.375  -2.079  1.00  0.00    -0.433 NA
ATOM      6  C   UNL     1       1.245   0.641  -1.146  1.00  0.00    -0.049 A 
ATOM      7  N   UNL     1       2.576   1.060  -1.150  1.00  0.00    -0.419 NA
ATOM      8  C   UNL     1       3.172   0.221  -2.166  1.00  0.00    +0.053 A 
ENDROOT
BRANCH   1   9
ATOM      9  C   UNL     1       5.594   0.669  -2.543  1.00  0.00    +0.180 C 
BRANCH   9  10
ATOM     10  C   UNL     1       6.445  -0.020  -1.502  1.00  0.00    -0.026 A 
ATOM     11  C   UNL     1       8.016  -1.301   0.457  1.00  0.00    +0.118 A 
ATOM     12  C   UNL     1       8.372  -1.364  -0.893  1.00  0.00    +0.047 A 
ATOM     13  C   UNL     1       6.870  -0.596   0.826  1.00  0.00    +0.047 A 
ATOM     14  C   UNL     1       7.592  -0.734  -1.868  1.00  0.00    +0.009 A 
ATOM     15  C   UNL     1       6.091   0.039  -0.147  1.00  0.00    +0.009 A 
BRANCH  11  16
ATOM     16  O   UNL     1       8.861  -1.963   1.306  1.00  0.00    -0.497 OA
ATOM     17  C   UNL     1       8.468  -2.021   2.671  1.00  0.00    +0.278 C 
ENDBRANCH  11  16
ENDBRANCH   9  10
ENDBRANCH   1   9
BRANCH   6  18
ATOM     18  C   UNL     1       0.099   1.227  -0.190  1.00  0.00    -0.022 A 
ATOM     19  C   UNL     1      -1.181   0.667  -0.340  1.00  0.00    +0.034 A 
ATOM     20  C   UNL     1       0.309   2.238   0.762  1.00  0.00    -0.044 A 
ATOM     21  C   UNL     1      -2.261   1.088   0.441  1.00  0.00    +0.043 A 
ATOM     22  C   UNL     1      -0.784   2.656   1.543  1.00  0.00    +0.006 A 
ATOM     23  C   UNL     1      -2.054   2.087   1.386  1.00  0.00    +0.026 A 
ATOM     24  C   UNL     1       1.644   2.888   0.982  1.00  0.00    +0.045 C 
BRANCH  21  25
ATOM     25  N   UNL     1      -3.495   0.447   0.212  1.00  0.00    -0.308 N 
ATOM     26  C   UNL     1      -4.714   0.688   0.820  1.00  0.00    +0.323 C 
ATOM     27  O   UNL     1      -4.944   1.561   1.646  1.00  0.00    -0.248 OA
ATOM     28  N   UNL     1      -5.646  -0.245   0.394  1.00  0.00    -0.303 N 
ATOM     29  H   UNL     1      -3.481  -0.237  -0.530  1.00  0.00    +0.171 HD
ATOM     30  H   UNL     1      -5.267  -1.117   0.048  1.00  0.00    +0.172 HD
BRANCH  28  31
ATOM     31  C   UNL     1      -7.041  -0.221   0.612  1.00  0.00    +0.115 A 
ATOM     32  C   UNL     1      -7.796   0.912   0.924  1.00  0.00    +0.152 A 
ATOM     33  C   UNL     1      -7.721  -1.440   0.467  1.00  0.00    +0.155 A 
ATOM     34  C   UNL     1      -9.171   0.822   1.136  1.00  0.00    +0.081 A 
ATOM     35  C   UNL     1      -9.101  -1.554   0.658  1.00  0.00    +0.023 A 
ATOM     36  C   UNL     1      -9.806  -0.407   1.014  1.00  0.00    +0.132 A 
ATOM     37  F   UNL     1      -7.258   2.137   0.955  1.00  0.00    -0.204 F 
ATOM     38  F   UNL     1      -7.016  -2.539   0.145  1.00  0.00    -0.204 F 
ATOM     39  C   UNL     1      -9.786  -2.879   0.545  1.00  0.00    +0.051 C 
ATOM     40  F   UNL     1     -11.128  -0.475   1.229  1.00  0.00    -0.206 F 
ENDBRANCH  28  31
ENDBRANCH  21  25
ENDBRANCH   6  18
TORSDOF 6
