REMARK SMILES C[NH+]1CCN(c2ccc(-c3cnn4c(-c5cc(NC(=O)c6cccc(C(F)(F)F)c6)ccc5F)ccnc34)cn2)CC1
REMARK SMILES IDX 15 1 16 2 17 3 31 4 32 5 33 6 34 7 14 8 10 9 11 10 38 11
REMARK SMILES IDX 12 12 37 13 13 14 36 15 35 16 9 17 6 18 7 19 40 20 8 21
REMARK SMILES IDX 39 22 5 23 2 24 3 25 42 26 4 27 41 28 1 29 18 31 19 32 20 33
REMARK SMILES IDX 21 35 22 36 30 37 23 38 25 39 24 40 26 41 27 42 28 43 29 44
REMARK H PARENT 2 30 18 34
ROOT
ATOM      1  C   UNL     1      -2.529  -0.046  -2.088  1.00  0.00    +0.038 A 
ATOM      2  C   UNL     1      -3.597   0.353  -1.266  1.00  0.00    +0.039 A 
ATOM      3  C   UNL     1      -4.914  -0.001  -1.580  1.00  0.00    +0.042 A 
ATOM      4  C   UNL     1      -5.157  -0.775  -2.723  1.00  0.00    +0.029 A 
ATOM      5  C   UNL     1      -4.104  -1.172  -3.550  1.00  0.00    +0.042 A 
ATOM      6  C   UNL     1      -2.802  -0.803  -3.230  1.00  0.00    +0.132 A 
ATOM      7  F   UNL     1      -1.808  -1.167  -4.055  1.00  0.00    -0.206 F 
ENDROOT
BRANCH   1   8
ATOM      8  C   UNL     1      -1.146   0.329  -1.750  1.00  0.00    +0.079 C 
ATOM      9  C   UNL     1       1.801  -1.427  -0.753  1.00  0.00    +0.048 A 
ATOM     10  C   UNL     1       0.824  -2.436  -0.866  1.00  0.00    +0.146 A 
ATOM     11  C   UNL     1       1.129  -0.260  -1.080  1.00  0.00    +0.163 A 
ATOM     12  N   UNL     1      -0.368  -1.977  -1.233  1.00  0.00    -0.174 NA
ATOM     13  N   UNL     1       1.537   1.051  -1.126  1.00  0.00    -0.236 NA
ATOM     14  N   UNL     1      -0.194  -0.636  -1.382  1.00  0.00    -0.214 N 
ATOM     15  C   UNL     1       0.628   1.916  -1.464  1.00  0.00    +0.116 C 
ATOM     16  C   UNL     1      -0.786   1.624  -1.806  1.00  0.00    +0.049 C 
BRANCH   9  17
ATOM     17  C   UNL     1       3.194  -1.519  -0.358  1.00  0.00    +0.006 A 
ATOM     18  C   UNL     1       5.873  -1.663   0.348  1.00  0.00    +0.128 A 
ATOM     19  C   UNL     1       4.975  -2.576   0.886  1.00  0.00    +0.047 A 
ATOM     20  N   UNL     1       5.482  -0.679  -0.496  1.00  0.00    -0.239 NA
ATOM     21  C   UNL     1       3.628  -2.506   0.527  1.00  0.00    +0.014 A 
ATOM     22  C   UNL     1       4.163  -0.645  -0.840  1.00  0.00    +0.122 A 
BRANCH  18  23
ATOM     23  N   UNL     1       7.210  -1.683   0.743  1.00  0.00    -0.345 N 
ATOM     24  N   UNL     1       7.521   0.950   0.362  1.00  0.00    -0.334 N 
ATOM     25  C   UNL     1       8.552   0.123  -0.380  1.00  0.00    +0.283 C 
ATOM     26  C   UNL     1       7.408   0.559   1.830  1.00  0.00    +0.283 C 
ATOM     27  C   UNL     1       8.189  -1.384  -0.322  1.00  0.00    +0.179 C 
ATOM     28  C   UNL     1       7.456  -0.983   2.014  1.00  0.00    +0.179 C 
ATOM     29  C   UNL     1       7.615   2.413   0.129  1.00  0.00    +0.332 C 
ATOM     30  H   UNL     1       6.621   0.615  -0.051  1.00  0.00    +0.347 HD
ENDBRANCH  18  23
ENDBRANCH   9  17
ENDBRANCH   1   8
BRANCH   3  31
ATOM     31  N   UNL     1      -6.031   0.365  -0.799  1.00  0.00    -0.322 N 
ATOM     32  C   UNL     1      -6.042   1.213   0.294  1.00  0.00    +0.255 C 
ATOM     33  O   UNL     1      -5.104   1.883   0.709  1.00  0.00    -0.269 OA
ATOM     34  H   UNL     1      -6.923   0.003  -1.112  1.00  0.00    +0.170 HD
BRANCH  32  35
ATOM     35  C   UNL     1      -7.359   1.335   0.981  1.00  0.00    +0.040 A 
ATOM     36  C   UNL     1      -7.722   2.577   1.516  1.00  0.00    +0.014 A 
ATOM     37  C   UNL     1      -8.217   0.236   1.131  1.00  0.00    +0.027 A 
ATOM     38  C   UNL     1      -8.943   2.728   2.172  1.00  0.00    +0.001 A 
ATOM     39  C   UNL     1      -9.453   0.382   1.785  1.00  0.00    +0.056 A 
ATOM     40  C   UNL     1      -9.805   1.638   2.304  1.00  0.00    +0.013 A 
BRANCH  39  41
ATOM     41  C   UNL     1     -10.365  -0.808   1.963  1.00  0.00    +0.416 C 
ATOM     42  F   UNL     1     -10.048  -1.542   3.064  1.00  0.00    -0.166 F 
ATOM     43  F   UNL     1     -11.676  -0.468   2.096  1.00  0.00    -0.166 F 
ATOM     44  F   UNL     1     -10.308  -1.669   0.909  1.00  0.00    -0.166 F 
ENDBRANCH  39  41
ENDBRANCH  32  35
ENDBRANCH   3  31
TORSDOF 6
