REMARK SMILES Cc1cc(-c2cccc3nc(Nc4ccc(N5CC[NH+](C)CC5)cc4)oc23)ccc1C(=O)[NH+]1CCOCC1
REMARK SMILES IDX 5 1 6 2 7 3 8 4 9 5 10 6 11 7 26 8 27 9 4 10 2 11 3 12 30 13
REMARK SMILES IDX 29 14 28 15 1 16 31 17 32 18 33 19 34 20 38 21 35 22 37 23
REMARK SMILES IDX 36 24 12 26 13 28 14 29 25 30 15 31 24 32 16 33 17 34 18 35
REMARK SMILES IDX 23 36 19 37 22 38 20 39 21 40
REMARK H PARENT 33 25 12 27 20 41
ROOT
ATOM      1  C   UNL     1      -2.318   0.744   2.835  1.00  0.00    +0.027 A 
ATOM      2  C   UNL     1      -2.472   0.807   4.239  1.00  0.00    +0.013 A 
ATOM      3  C   UNL     1      -1.394   0.666   5.123  1.00  0.00    +0.003 A 
ATOM      4  C   UNL     1      -0.097   0.456   4.646  1.00  0.00    +0.032 A 
ATOM      5  C   UNL     1       0.092   0.395   3.261  1.00  0.00    +0.112 A 
ATOM      6  N   UNL     1       1.234   0.207   2.530  1.00  0.00    -0.193 NA
ATOM      7  C   UNL     1       0.829   0.238   1.279  1.00  0.00    +0.300 A 
ATOM      8  O   UNL     1      -0.522   0.429   1.133  1.00  0.00    -0.423 OA
ATOM      9  C   UNL     1      -0.997   0.537   2.415  1.00  0.00    +0.164 A 
ENDROOT
BRANCH   1  10
ATOM     10  C   UNL     1      -3.445   0.893   1.904  1.00  0.00    -0.014 A 
ATOM     11  C   UNL     1      -5.790   0.393   1.296  1.00  0.00    -0.034 A 
ATOM     12  C   UNL     1      -4.666   0.231   2.134  1.00  0.00    +0.013 A 
ATOM     13  C   UNL     1      -5.660   1.210   0.160  1.00  0.00    +0.082 A 
ATOM     14  C   UNL     1      -4.454   1.889  -0.077  1.00  0.00    +0.019 A 
ATOM     15  C   UNL     1      -3.365   1.730   0.784  1.00  0.00    +0.010 A 
ATOM     16  C   UNL     1      -7.062  -0.298   1.700  1.00  0.00    +0.045 C 
BRANCH  13  17
ATOM     17  C   UNL     1      -6.734   1.431  -0.841  1.00  0.00    +0.344 C 
ATOM     18  O   UNL     1      -6.957   2.519  -1.340  1.00  0.00    -0.226 OA
BRANCH  17  19
ATOM     19  N   UNL     1      -7.520   0.324  -1.403  1.00  0.00    -0.264 N 
ATOM     20  C   UNL     1      -9.007   0.625  -1.380  1.00  0.00    +0.299 C 
ATOM     21  C   UNL     1      -7.074   0.025  -2.821  1.00  0.00    +0.299 C 
ATOM     22  C   UNL     1      -9.758  -0.569  -1.980  1.00  0.00    +0.222 C 
ATOM     23  C   UNL     1      -7.907  -1.141  -3.364  1.00  0.00    +0.222 C 
ATOM     24  O   UNL     1      -9.306  -0.842  -3.311  1.00  0.00    -0.370 OA
ATOM     25  H   UNL     1      -7.334  -0.504  -0.837  1.00  0.00    +0.357 HD
ENDBRANCH  17  19
ENDBRANCH  13  17
ENDBRANCH   1  10
BRANCH   7  26
ATOM     26  N   UNL     1       1.506   0.123   0.122  1.00  0.00    -0.309 N 
ATOM     27  H   UNL     1       0.957   0.188  -0.723  1.00  0.00    +0.171 HD
BRANCH  26  28
ATOM     28  C   UNL     1       2.884  -0.068  -0.074  1.00  0.00    +0.042 A 
ATOM     29  C   UNL     1       3.811  -0.214   0.959  1.00  0.00    +0.028 A 
ATOM     30  C   UNL     1       3.383  -0.112  -1.381  1.00  0.00    +0.028 A 
ATOM     31  C   UNL     1       5.179  -0.395   0.699  1.00  0.00    +0.028 A 
ATOM     32  C   UNL     1       4.752  -0.290  -1.639  1.00  0.00    +0.028 A 
ATOM     33  C   UNL     1       5.686  -0.429  -0.605  1.00  0.00    +0.037 A 
BRANCH  33  34
ATOM     34  N   UNL     1       7.042  -0.609  -0.883  1.00  0.00    -0.360 N 
ATOM     35  C   UNL     1       7.683   0.386  -1.763  1.00  0.00    +0.178 C 
ATOM     36  C   UNL     1       7.898  -1.262   0.123  1.00  0.00    +0.178 C 
ATOM     37  C   UNL     1       8.985  -0.164  -2.382  1.00  0.00    +0.283 C 
ATOM     38  C   UNL     1       9.192  -1.811  -0.511  1.00  0.00    +0.283 C 
ATOM     39  N   UNL     1       9.919  -0.753  -1.332  1.00  0.00    -0.334 N 
ATOM     40  C   UNL     1      10.616   0.281  -0.500  1.00  0.00    +0.332 C 
ATOM     41  H   UNL     1      10.655  -1.250  -1.850  1.00  0.00    +0.347 HD
ENDBRANCH  33  34
ENDBRANCH  26  28
ENDBRANCH   7  26
TORSDOF 6
