REMARK SMILES C[C@@H]1CC[C@]2(C(=O)[O-])CC[C@]3(C)C(=CC[C@@H]4[C@@]5(C)[C@@H](O)[C@@H](O)[C@H](O)C(C)(C)[C@@H]5CC[C@]43C)[C@@H]2[C@]1(C)O
REMARK SMILES IDX 1 1 2 2 3 3 4 4 5 5 9 6 10 7 11 8 12 9 13 10 14 11 15 12
REMARK SMILES IDX 16 13 17 14 18 15 19 16 21 17 23 18 25 19 26 20 27 21 28 22
REMARK SMILES IDX 29 23 30 24 31 25 32 26 33 27 34 28 35 29 36 30 6 32 7 33
REMARK SMILES IDX 8 34 20 35 22 37 24 39
REMARK H PARENT 36 31 20 36 22 38 24 40
ROOT
ATOM      1  C   UNL     1       6.511  -1.907  -1.457  1.00  0.00    +0.011 C 
ATOM      2  C   UNL     1       5.632  -0.678  -1.184  1.00  0.00    +0.018 C 
ATOM      3  C   UNL     1       6.148   0.004   0.091  1.00  0.00    +0.007 C 
ATOM      4  C   UNL     1       5.431   1.324   0.332  1.00  0.00    +0.014 C 
ATOM      5  C   UNL     1       3.890   1.200   0.410  1.00  0.00    +0.019 C 
ATOM      6  C   UNL     1       3.457   0.609   1.760  1.00  0.00    +0.015 C 
ATOM      7  C   UNL     1       1.938   0.623   1.929  1.00  0.00    +0.013 C 
ATOM      8  C   UNL     1       1.119   0.016   0.750  1.00  0.00    -0.006 C 
ATOM      9  C   UNL     1       1.068  -1.524   0.995  1.00  0.00    +0.017 C 
ATOM     10  C   UNL     1       1.782   0.196  -0.632  1.00  0.00    -0.061 C 
ATOM     11  C   UNL     1       1.025   0.277  -1.748  1.00  0.00    -0.026 C 
ATOM     12  C   UNL     1      -0.469   0.192  -1.815  1.00  0.00    +0.032 C 
ATOM     13  C   UNL     1      -1.184  -0.007  -0.457  1.00  0.00    +0.008 C 
ATOM     14  C   UNL     1      -2.760   0.245  -0.507  1.00  0.00    +0.003 C 
ATOM     15  C   UNL     1      -3.110   1.697  -0.931  1.00  0.00    +0.015 C 
ATOM     16  C   UNL     1      -3.416  -0.712  -1.562  1.00  0.00    +0.152 C 
ATOM     17  C   UNL     1      -4.950  -0.749  -1.485  1.00  0.00    +0.172 C 
ATOM     18  C   UNL     1      -5.444  -1.112  -0.078  1.00  0.00    +0.151 C 
ATOM     19  C   UNL     1      -4.899  -0.185   1.047  1.00  0.00    -0.003 C 
ATOM     20  C   UNL     1      -5.584   1.197   1.035  1.00  0.00    +0.014 C 
ATOM     21  C   UNL     1      -5.289  -0.841   2.401  1.00  0.00    +0.014 C 
ATOM     22  C   UNL     1      -3.327  -0.117   0.923  1.00  0.00    +0.006 C 
ATOM     23  C   UNL     1      -2.635   0.723   2.018  1.00  0.00    +0.005 C 
ATOM     24  C   UNL     1      -1.128   0.462   2.061  1.00  0.00    +0.008 C 
ATOM     25  C   UNL     1      -0.383   0.676   0.714  1.00  0.00    -0.020 C 
ATOM     26  C   UNL     1      -0.282   2.220   0.490  1.00  0.00    +0.012 C 
ATOM     27  C   UNL     1       3.314   0.358  -0.758  1.00  0.00    +0.059 C 
ATOM     28  C   UNL     1       4.108  -0.985  -1.057  1.00  0.00    +0.072 C 
ATOM     29  C   UNL     1       3.583  -1.654  -2.343  1.00  0.00    +0.043 C 
ENDROOT
BRANCH  28  30
ATOM     30  O   UNL     1       3.950  -1.935   0.003  1.00  0.00    -0.389 OA
ATOM     31  H   UNL     1       4.197  -2.810  -0.332  1.00  0.00    +0.211 HD
ENDBRANCH  28  30
BRANCH   5  32
ATOM     32  C   UNL     1       3.517   2.720   0.286  1.00  0.00    +0.048 C 
ATOM     33  O   UNL     1       3.371   3.166  -0.889  1.00  0.00    -0.550 OA
ATOM     34  O   UNL     1       3.457   3.365   1.374  1.00  0.00    -0.550 OA
ENDBRANCH   5  32
BRANCH  16  35
ATOM     35  O   UNL     1      -2.955  -2.061  -1.388  1.00  0.00    -0.390 OA
ATOM     36  H   UNL     1      -3.492  -2.590  -2.012  1.00  0.00    +0.211 HD
ENDBRANCH  16  35
BRANCH  17  37
ATOM     37  O   UNL     1      -5.430  -1.751  -2.408  1.00  0.00    -0.388 OA
ATOM     38  H   UNL     1      -6.318  -1.998  -2.080  1.00  0.00    +0.211 HD
ENDBRANCH  17  37
BRANCH  18  39
ATOM     39  O   UNL     1      -6.883  -1.150  -0.112  1.00  0.00    -0.390 OA
ATOM     40  H   UNL     1      -7.205  -0.248  -0.284  1.00  0.00    +0.211 HD
ENDBRANCH  18  39
TORSDOF 5
