REMARK SMILES O=C(Nc1cc(N2CCC([NH+]3CCCC3)CC2)cc(C(F)(F)F)c1)c1cccc(C(F)(F)F)c1
REMARK SMILES IDX 4 1 5 2 6 3 18 4 19 5 24 6 3 7 1 8 2 9 25 11 26 12 34 13
REMARK SMILES IDX 27 14 29 15 28 16 30 17 31 18 32 19 33 20 7 21 8 22 17 23
REMARK SMILES IDX 9 24 16 25 10 26 11 27 12 28 15 29 13 30 14 31 20 33 21 34
REMARK SMILES IDX 22 35 23 36
REMARK H PARENT 3 10 11 32
ROOT
ATOM      1  C   UNL     1       2.081  -1.684   0.260  1.00  0.00    +0.044 A 
ATOM      2  C   UNL     1       0.769  -1.291  -0.022  1.00  0.00    +0.052 A 
ATOM      3  C   UNL     1      -0.336  -2.108   0.270  1.00  0.00    +0.039 A 
ATOM      4  C   UNL     1      -0.081  -3.360   0.844  1.00  0.00    +0.039 A 
ATOM      5  C   UNL     1       1.226  -3.793   1.118  1.00  0.00    +0.060 A 
ATOM      6  C   UNL     1       2.302  -2.941   0.828  1.00  0.00    +0.039 A 
ENDROOT
BRANCH   1   7
ATOM      7  N   UNL     1       3.212  -0.880  -0.002  1.00  0.00    -0.322 N 
ATOM      8  O   UNL     1       2.246   1.145  -0.645  1.00  0.00    -0.269 OA
ATOM      9  C   UNL     1       3.222   0.424  -0.467  1.00  0.00    +0.255 C 
ATOM     10  H   UNL     1       4.109  -1.294   0.223  1.00  0.00    +0.170 HD
BRANCH   9  11
ATOM     11  C   UNL     1       4.576   0.996  -0.720  1.00  0.00    +0.040 A 
ATOM     12  C   UNL     1       5.622   0.219  -1.232  1.00  0.00    +0.014 A 
ATOM     13  C   UNL     1       4.782   2.359  -0.466  1.00  0.00    +0.027 A 
ATOM     14  C   UNL     1       6.871   0.798  -1.464  1.00  0.00    +0.001 A 
ATOM     15  C   UNL     1       6.037   2.948  -0.690  1.00  0.00    +0.056 A 
ATOM     16  C   UNL     1       7.077   2.152  -1.193  1.00  0.00    +0.013 A 
BRANCH  15  17
ATOM     17  C   UNL     1       6.243   4.421  -0.429  1.00  0.00    +0.416 C 
ATOM     18  F   UNL     1       5.828   5.191  -1.471  1.00  0.00    -0.166 F 
ATOM     19  F   UNL     1       7.545   4.751  -0.208  1.00  0.00    -0.166 F 
ATOM     20  F   UNL     1       5.556   4.862   0.661  1.00  0.00    -0.166 F 
ENDBRANCH  15  17
ENDBRANCH   9  11
ENDBRANCH   1   7
BRANCH   3  21
ATOM     21  N   UNL     1      -1.654  -1.708   0.007  1.00  0.00    -0.371 N 
ATOM     22  C   UNL     1      -1.875  -0.825  -1.135  1.00  0.00    +0.122 C 
ATOM     23  C   UNL     1      -2.520  -1.603   1.181  1.00  0.00    +0.122 C 
ATOM     24  C   UNL     1      -3.345  -0.826  -1.532  1.00  0.00    +0.086 C 
ATOM     25  C   UNL     1      -3.984  -1.580   0.763  1.00  0.00    +0.086 C 
ATOM     26  C   UNL     1      -4.267  -0.555  -0.339  1.00  0.00    +0.187 C 
BRANCH  26  27
ATOM     27  N   UNL     1      -4.108   0.876   0.167  1.00  0.00    -0.332 N 
ATOM     28  C   UNL     1      -4.924   1.227   1.397  1.00  0.00    +0.262 C 
ATOM     29  C   UNL     1      -4.420   1.961  -0.862  1.00  0.00    +0.262 C 
ATOM     30  C   UNL     1      -4.992   2.736   1.342  1.00  0.00    +0.067 C 
ATOM     31  C   UNL     1      -5.247   3.002  -0.125  1.00  0.00    +0.067 C 
ATOM     32  H   UNL     1      -3.123   1.012   0.436  1.00  0.00    +0.348 HD
ENDBRANCH  26  27
ENDBRANCH   3  21
BRANCH   5  33
ATOM     33  C   UNL     1       1.456  -5.144   1.748  1.00  0.00    +0.416 C 
ATOM     34  F   UNL     1       1.234  -5.126   3.090  1.00  0.00    -0.166 F 
ATOM     35  F   UNL     1       2.726  -5.605   1.582  1.00  0.00    -0.166 F 
ATOM     36  F   UNL     1       0.637  -6.107   1.244  1.00  0.00    -0.166 F 
ENDBRANCH   5  33
TORSDOF 6
