REMARK SMILES CC(=O)O[C@@H]1CC[C@@]2(C)[C@@H](CC[C@]3(C)[C@@H]2CC=C2[C@@H]4C[C@](C)(C(=O)[O-])CC[C@]4(C)CC[C@]23C)[C@]1(C)C(=O)[O-]
REMARK SMILES IDX 5 1 6 2 7 3 8 4 9 5 10 6 11 7 12 8 13 9 14 10 15 11 16 12
REMARK SMILES IDX 17 13 18 14 19 15 20 16 21 17 22 18 26 19 27 20 28 21 29 22
REMARK SMILES IDX 30 23 31 24 32 25 33 26 34 27 35 28 4 29 2 30 3 31 1 32
REMARK SMILES IDX 36 33 37 34 38 35 23 36 24 37 25 38
REMARK H PARENT
ROOT
ATOM      1  C   UNL     1       5.329  -0.664  -0.107  1.00  0.00    +0.188 C 
ATOM      2  C   UNL     1       4.619  -1.986  -0.429  1.00  0.00    +0.047 C 
ATOM      3  C   UNL     1       3.105  -1.806  -0.618  1.00  0.00    +0.011 C 
ATOM      4  C   UNL     1       2.389  -1.139   0.595  1.00  0.00    -0.025 C 
ATOM      5  C   UNL     1       2.367  -2.189   1.738  1.00  0.00    +0.012 C 
ATOM      6  C   UNL     1       3.171   0.182   0.963  1.00  0.00    +0.010 C 
ATOM      7  C   UNL     1       2.450   0.928   2.105  1.00  0.00    +0.006 C 
ATOM      8  C   UNL     1       1.058   1.384   1.647  1.00  0.00    +0.008 C 
ATOM      9  C   UNL     1       0.127   0.239   1.151  1.00  0.00    -0.020 C 
ATOM     10  C   UNL     1      -0.330  -0.555   2.414  1.00  0.00    +0.012 C 
ATOM     11  C   UNL     1       0.920  -0.696   0.155  1.00  0.00    +0.006 C 
ATOM     12  C   UNL     1       0.030  -1.848  -0.360  1.00  0.00    +0.032 C 
ATOM     13  C   UNL     1      -1.413  -1.496  -0.564  1.00  0.00    -0.027 C 
ATOM     14  C   UNL     1      -2.000  -0.323  -0.248  1.00  0.00    -0.064 C 
ATOM     15  C   UNL     1      -3.499  -0.162  -0.532  1.00  0.00    +0.022 C 
ATOM     16  C   UNL     1      -3.806   0.260  -1.986  1.00  0.00    +0.021 C 
ATOM     17  C   UNL     1      -5.303   0.039  -2.341  1.00  0.00    +0.008 C 
ATOM     18  C   UNL     1      -5.519  -1.353  -2.959  1.00  0.00    +0.018 C 
ATOM     19  C   UNL     1      -6.209   0.173  -1.096  1.00  0.00    +0.013 C 
ATOM     20  C   UNL     1      -5.644   1.183  -0.098  1.00  0.00    +0.008 C 
ATOM     21  C   UNL     1      -4.273   0.729   0.485  1.00  0.00    -0.026 C 
ATOM     22  C   UNL     1      -4.542  -0.093   1.770  1.00  0.00    +0.012 C 
ATOM     23  C   UNL     1      -3.463   1.996   0.833  1.00  0.00    +0.008 C 
ATOM     24  C   UNL     1      -2.060   1.679   1.347  1.00  0.00    +0.012 C 
ATOM     25  C   UNL     1      -1.189   0.830   0.373  1.00  0.00    -0.006 C 
ATOM     26  C   UNL     1      -0.795   1.764  -0.810  1.00  0.00    +0.017 C 
ATOM     27  C   UNL     1       4.718   0.031   1.141  1.00  0.00    +0.047 C 
ATOM     28  C   UNL     1       5.122  -0.687   2.442  1.00  0.00    +0.022 C 
ENDROOT
BRANCH   1  29
ATOM     29  O   UNL     1       5.154   0.191  -1.264  1.00  0.00    -0.462 OA
BRANCH  29  30
ATOM     30  C   UNL     1       6.076   0.105  -2.253  1.00  0.00    +0.302 C 
ATOM     31  O   UNL     1       6.945  -0.751  -2.369  1.00  0.00    -0.253 OA
ATOM     32  C   UNL     1       5.850   1.208  -3.242  1.00  0.00    +0.139 C 
ENDBRANCH  29  30
ENDBRANCH   1  29
BRANCH  27  33
ATOM     33  C   UNL     1       5.523   1.378   1.171  1.00  0.00    +0.051 C 
ATOM     34  O   UNL     1       6.755   1.282   1.452  1.00  0.00    -0.549 OA
ATOM     35  O   UNL     1       4.874   2.429   0.907  1.00  0.00    -0.549 OA
ENDBRANCH  27  33
BRANCH  17  36
ATOM     36  C   UNL     1      -5.650   1.049  -3.480  1.00  0.00    +0.047 C 
ATOM     37  O   UNL     1      -6.573   1.876  -3.229  1.00  0.00    -0.550 OA
ATOM     38  O   UNL     1      -4.976   0.929  -4.544  1.00  0.00    -0.550 OA
ENDBRANCH  17  36
TORSDOF 4
