REMARK SMILES CC[N+](CC)(CC(=O)Nc1c(C)cccc1C)Cc1ccccc1
REMARK SMILES IDX 6 1 3 2 2 3 1 4 4 5 5 6 18 7 19 8 20 9 24 10 21 11 23 12
REMARK SMILES IDX 22 13 7 14 8 15 9 16 10 18 11 19 16 20 13 21 15 22 14 23
REMARK SMILES IDX 12 24 17 25
REMARK H PARENT 9 17
ROOT
ATOM      1  C   UNL     1      -0.384  -0.679   0.744  1.00  0.00    +0.365 C 
ENDROOT
BRANCH   1   2
ATOM      2  N   UNL     1      -1.670  -1.230   0.009  1.00  0.00    -0.313 N 
BRANCH   2   3
ATOM      3  C   UNL     1      -1.270  -2.176  -1.151  1.00  0.00    +0.261 C 
ATOM      4  C   UNL     1      -0.463  -3.385  -0.706  1.00  0.00    +0.071 C 
ENDBRANCH   2   3
BRANCH   2   5
ATOM      5  C   UNL     1      -2.517  -1.938   1.083  1.00  0.00    +0.261 C 
ATOM      6  C   UNL     1      -3.762  -2.631   0.552  1.00  0.00    +0.071 C 
ENDBRANCH   2   5
BRANCH   2   7
ATOM      7  C   UNL     1      -2.454  -0.041  -0.647  1.00  0.00    +0.301 C 
BRANCH   7   8
ATOM      8  C   UNL     1      -2.817   1.126   0.239  1.00  0.00    +0.006 A 
ATOM      9  C   UNL     1      -2.005   2.272   0.265  1.00  0.00    +0.009 A 
ATOM     10  C   UNL     1      -3.976   1.112   1.031  1.00  0.00    +0.009 A 
ATOM     11  C   UNL     1      -2.319   3.353   1.091  1.00  0.00    +0.001 A 
ATOM     12  C   UNL     1      -4.289   2.195   1.856  1.00  0.00    +0.001 A 
ATOM     13  C   UNL     1      -3.457   3.311   1.890  1.00  0.00    +0.000 A 
ENDBRANCH   7   8
ENDBRANCH   2   7
ENDBRANCH   1   2
BRANCH   1  14
ATOM     14  C   UNL     1       0.709  -0.034  -0.125  1.00  0.00    +0.279 C 
ATOM     15  O   UNL     1       0.454   0.401  -1.243  1.00  0.00    -0.268 OA
ATOM     16  N   UNL     1       1.960  -0.062   0.471  1.00  0.00    -0.321 N 
ATOM     17  H   UNL     1       2.092  -0.688   1.255  1.00  0.00    +0.170 HD
BRANCH  16  18
ATOM     18  C   UNL     1       3.159   0.505  -0.037  1.00  0.00    +0.047 A 
ATOM     19  C   UNL     1       3.221   1.728  -0.739  1.00  0.00    -0.027 A 
ATOM     20  C   UNL     1       4.362  -0.199   0.233  1.00  0.00    -0.027 A 
ATOM     21  C   UNL     1       4.458   2.162  -1.254  1.00  0.00    +0.005 A 
ATOM     22  C   UNL     1       5.582   0.283  -0.269  1.00  0.00    +0.005 A 
ATOM     23  C   UNL     1       5.627   1.446  -1.025  1.00  0.00    +0.001 A 
ATOM     24  C   UNL     1       2.064   2.670  -0.936  1.00  0.00    +0.046 C 
ATOM     25  C   UNL     1       4.395  -1.486   1.018  1.00  0.00    +0.046 C 
ENDBRANCH  16  18
ENDBRANCH   1  14
TORSDOF 7
