REMARK SMILES Cc1ccc(S(=O)(=O)Nc2ccc(C(=O)c3cc4cc(Br)ccc4oc3=O)cc2)cc1
REMARK SMILES IDX 10 1 11 2 12 3 13 4 28 5 29 6 9 7 6 9 7 10 8 11 5 12 2 13
REMARK SMILES IDX 3 14 31 15 4 16 30 17 1 18 14 19 15 20 16 21 17 22 26 23
REMARK SMILES IDX 18 24 25 25 27 26 19 27 24 28 20 29 23 30 22 31 21 32
REMARK H PARENT 9 8
ROOT
ATOM      1  C   UNL     1       1.561   1.966   1.989  1.00  0.00    +0.049 A 
ATOM      2  C   UNL     1       1.756   0.678   2.491  1.00  0.00    +0.027 A 
ATOM      3  C   UNL     1       0.718  -0.254   2.436  1.00  0.00    +0.014 A 
ATOM      4  C   UNL     1      -0.511   0.099   1.865  1.00  0.00    +0.023 A 
ATOM      5  C   UNL     1      -0.718   1.403   1.400  1.00  0.00    +0.014 A 
ATOM      6  C   UNL     1       0.323   2.333   1.460  1.00  0.00    +0.027 A 
ENDROOT
BRANCH   1   7
ATOM      7  N   UNL     1       2.655   2.874   1.967  1.00  0.00    -0.280 N 
ATOM      8  H   UNL     1       3.387   2.754   2.664  1.00  0.00    +0.180 HD
BRANCH   7   9
ATOM      9  S   UNL     1       3.304   3.326   0.467  1.00  0.00    +0.261 S 
ATOM     10  O   UNL     1       2.283   3.985  -0.320  1.00  0.00    -0.201 OA
ATOM     11  O   UNL     1       4.561   3.982   0.762  1.00  0.00    -0.201 OA
BRANCH   9  12
ATOM     12  C   UNL     1       3.677   1.764  -0.298  1.00  0.00    +0.087 A 
ATOM     13  C   UNL     1       4.259  -0.700  -1.481  1.00  0.00    -0.051 A 
ATOM     14  C   UNL     1       5.220  -0.047  -0.697  1.00  0.00    +0.005 A 
ATOM     15  C   UNL     1       3.016  -0.089  -1.694  1.00  0.00    +0.005 A 
ATOM     16  C   UNL     1       4.932   1.183  -0.102  1.00  0.00    +0.022 A 
ATOM     17  C   UNL     1       2.725   1.144  -1.110  1.00  0.00    +0.022 A 
ATOM     18  C   UNL     1       4.579  -2.010  -2.141  1.00  0.00    +0.044 C 
ENDBRANCH   9  12
ENDBRANCH   7   9
ENDBRANCH   1   7
BRANCH   4  19
ATOM     19  C   UNL     1      -1.581  -0.925   1.809  1.00  0.00    +0.200 C 
ATOM     20  O   UNL     1      -1.730  -1.692   2.757  1.00  0.00    -0.288 OA
BRANCH  19  21
ATOM     21  C   UNL     1      -2.463  -0.990   0.612  1.00  0.00    +0.109 C 
ATOM     22  C   UNL     1      -3.752  -1.287   0.846  1.00  0.00    +0.032 C 
ATOM     23  C   UNL     1      -1.953  -0.796  -0.764  1.00  0.00    +0.347 C 
ATOM     24  C   UNL     1      -4.697  -1.373  -0.255  1.00  0.00    +0.019 A 
ATOM     25  O   UNL     1      -2.890  -0.839  -1.793  1.00  0.00    -0.422 OA
ATOM     26  O   UNL     1      -0.765  -0.611  -1.006  1.00  0.00    -0.246 OA
ATOM     27  C   UNL     1      -6.046  -1.674  -0.055  1.00  0.00    +0.027 A 
ATOM     28  C   UNL     1      -4.243  -1.136  -1.549  1.00  0.00    +0.138 A 
ATOM     29  C   UNL     1      -6.910  -1.731  -1.152  1.00  0.00    +0.018 A 
ATOM     30  C   UNL     1      -5.097  -1.190  -2.648  1.00  0.00    +0.049 A 
ATOM     31  C   UNL     1      -6.443  -1.490  -2.445  1.00  0.00    +0.019 A 
ATOM     32 Br   UNL     1      -8.737  -2.139  -0.880  1.00  0.00    -0.051 Br
ENDBRANCH  19  21
ENDBRANCH   4  19
TORSDOF 5
