REMARK SMILES COC(=O)C[C@H]1C(C)(C)[C@H](OC(=O)c2ccccc2)[C@]2(O)CC3=C4CC(=O)O[C@@H](c5ccoc5)[C@]4(C)CC[C@@H]3[C@@]1(C)C2=O
REMARK SMILES IDX 6 1 7 2 8 3 9 4 10 5 20 6 22 7 23 8 24 9 25 10 26 11 27 12
REMARK SMILES IDX 28 13 29 14 35 15 36 16 37 17 38 18 39 19 40 20 41 21 42 22
REMARK SMILES IDX 43 23 5 24 3 25 4 26 2 27 1 28 11 29 12 30 13 31 14 32 15 33
REMARK SMILES IDX 19 34 16 35 18 36 17 37 21 38 30 40 31 41 34 42 32 43 33 44
REMARK H PARENT 21 39
ROOT
ATOM      1  C   UNL     1       0.680   1.596   1.439  1.00  0.00    +0.024 C 
ATOM      2  C   UNL     1       2.254   1.462   1.466  1.00  0.00    +0.010 C 
ATOM      3  C   UNL     1       2.895   2.063   0.186  1.00  0.00    +0.015 C 
ATOM      4  C   UNL     1       2.917   2.221   2.642  1.00  0.00    +0.015 C 
ATOM      5  C   UNL     1       2.598  -0.076   1.522  1.00  0.00    +0.222 C 
ATOM      6  C   UNL     1       1.821  -0.874   2.605  1.00  0.00    +0.164 C 
ATOM      7  C   UNL     1       0.790  -1.917   2.125  1.00  0.00    +0.078 C 
ATOM      8  C   UNL     1      -0.509  -1.370   1.522  1.00  0.00    -0.062 C 
ATOM      9  C   UNL     1      -1.147  -1.965   0.480  1.00  0.00    -0.050 C 
ATOM     10  C   UNL     1      -0.551  -3.067  -0.373  1.00  0.00    +0.154 C 
ATOM     11  C   UNL     1      -0.904  -3.019  -1.857  1.00  0.00    +0.310 C 
ATOM     12  O   UNL     1      -0.493  -3.883  -2.629  1.00  0.00    -0.252 OA
ATOM     13  O   UNL     1      -1.724  -2.040  -2.305  1.00  0.00    -0.456 OA
ATOM     14  C   UNL     1      -2.234  -0.994  -1.436  1.00  0.00    +0.220 C 
ATOM     15  C   UNL     1      -2.541  -1.552  -0.014  1.00  0.00    +0.031 C 
ATOM     16  C   UNL     1      -3.504  -2.770  -0.054  1.00  0.00    +0.020 C 
ATOM     17  C   UNL     1      -3.208  -0.539   0.948  1.00  0.00    +0.016 C 
ATOM     18  C   UNL     1      -2.246   0.509   1.465  1.00  0.00    +0.010 C 
ATOM     19  C   UNL     1      -1.102  -0.148   2.261  1.00  0.00    +0.029 C 
ATOM     20  C   UNL     1      -0.018   0.912   2.693  1.00  0.00    +0.040 C 
ATOM     21  C   UNL     1      -0.611   1.922   3.701  1.00  0.00    +0.021 C 
ATOM     22  C   UNL     1       1.003   0.072   3.458  1.00  0.00    +0.175 C 
ATOM     23  O   UNL     1       1.129   0.082   4.684  1.00  0.00    -0.296 OA
ENDROOT
BRANCH   1  24
ATOM     24  C   UNL     1       0.173   3.032   1.131  1.00  0.00    +0.128 C 
BRANCH  24  25
ATOM     25  C   UNL     1       0.110   3.327  -0.355  1.00  0.00    +0.305 C 
ATOM     26  O   UNL     1      -0.300   2.537  -1.197  1.00  0.00    -0.252 OA
BRANCH  25  27
ATOM     27  O   UNL     1       0.534   4.594  -0.604  1.00  0.00    -0.469 OA
ATOM     28  C   UNL     1       0.499   4.960  -1.984  1.00  0.00    +0.282 C 
ENDBRANCH  25  27
ENDBRANCH  24  25
ENDBRANCH   1  24
BRANCH   5  29
ATOM     29  O   UNL     1       2.303  -0.611   0.204  1.00  0.00    -0.455 OA
BRANCH  29  30
ATOM     30  C   UNL     1       3.261  -1.361  -0.392  1.00  0.00    +0.338 C 
ATOM     31  O   UNL     1       4.295  -1.752   0.121  1.00  0.00    -0.246 OA
BRANCH  30  32
ATOM     32  C   UNL     1       2.875  -1.651  -1.797  1.00  0.00    +0.060 A 
ATOM     33  C   UNL     1       3.554  -2.673  -2.472  1.00  0.00    +0.015 A 
ATOM     34  C   UNL     1       1.876  -0.926  -2.463  1.00  0.00    +0.015 A 
ATOM     35  C   UNL     1       3.226  -2.978  -3.794  1.00  0.00    +0.001 A 
ATOM     36  C   UNL     1       1.554  -1.233  -3.786  1.00  0.00    +0.001 A 
ATOM     37  C   UNL     1       2.226  -2.260  -4.448  1.00  0.00    +0.000 A 
ENDBRANCH  30  32
ENDBRANCH  29  30
ENDBRANCH   5  29
BRANCH   6  38
ATOM     38  O   UNL     1       2.771  -1.549   3.443  1.00  0.00    -0.378 OA
ATOM     39  H   UNL     1       2.470  -1.430   4.368  1.00  0.00    +0.212 HD
ENDBRANCH   6  38
BRANCH  14  40
ATOM     40  C   UNL     1      -3.390  -0.319  -2.115  1.00  0.00    +0.032 A 
ATOM     41  C   UNL     1      -4.484  -0.922  -2.803  1.00  0.00    +0.049 A 
ATOM     42  C   UNL     1      -3.595   1.042  -2.236  1.00  0.00    +0.202 A 
ATOM     43  C   UNL     1      -5.274   0.106  -3.260  1.00  0.00    +0.195 A 
ATOM     44  O   UNL     1      -4.740   1.303  -2.913  1.00  0.00    -0.472 OA
ENDBRANCH  14  40
TORSDOF 8
