REMARK SMILES COc1ccc2[n-]c3c(C(=O)NCC[NH+](C)C)ccc(NCC[NH+](C)C)c3c(=O)c2c1
REMARK SMILES IDX 3 1 4 2 5 3 6 4 7 5 8 6 9 7 18 8 19 9 20 10 27 11 28 12
REMARK SMILES IDX 29 13 30 14 31 15 2 16 1 17 21 18 22 20 23 21 24 22 25 23
REMARK SMILES IDX 26 24 10 26 11 27 12 28 13 30 14 31 15 32 16 33 17 34
REMARK H PARENT 21 19 24 25 12 29 15 35
ROOT
ATOM      1  C   UNL     1       2.400   2.010  -2.883  1.00  0.00    +0.119 A 
ATOM      2  C   UNL     1       1.162   2.646  -2.899  1.00  0.00    +0.045 A 
ATOM      3  C   UNL     1       0.128   2.206  -2.058  1.00  0.00    -0.011 A 
ATOM      4  C   UNL     1       0.295   1.125  -1.180  1.00  0.00    -0.125 A 
ATOM      5  N   UNL     1      -0.737   0.760  -0.395  1.00  0.00    -0.656 NA
ATOM      6  C   UNL     1      -0.599  -0.323   0.415  1.00  0.00    -0.110 A 
ATOM      7  C   UNL     1      -1.694  -0.758   1.210  1.00  0.00    +0.026 A 
ATOM      8  C   UNL     1      -1.591  -1.878   2.048  1.00  0.00    +0.015 A 
ATOM      9  C   UNL     1      -0.399  -2.593   2.132  1.00  0.00    +0.027 A 
ATOM     10  C   UNL     1       0.705  -2.230   1.360  1.00  0.00    +0.044 A 
ATOM     11  C   UNL     1       0.591  -1.087   0.521  1.00  0.00    +0.032 A 
ATOM     12  C   UNL     1       1.772  -0.610  -0.254  1.00  0.00    +0.192 C 
ATOM     13  O   UNL     1       2.898  -1.080  -0.080  1.00  0.00    -0.289 OA
ATOM     14  C   UNL     1       1.553   0.507  -1.186  1.00  0.00    +0.012 A 
ATOM     15  C   UNL     1       2.594   0.936  -2.020  1.00  0.00    +0.057 A 
ENDROOT
BRANCH   1  16
ATOM     16  O   UNL     1       3.488   2.340  -3.644  1.00  0.00    -0.497 OA
ATOM     17  C   UNL     1       3.321   3.404  -4.573  1.00  0.00    +0.278 C 
ENDBRANCH   1  16
BRANCH  10  18
ATOM     18  N   UNL     1       1.896  -2.945   1.459  1.00  0.00    -0.379 N 
ATOM     19  H   UNL     1       2.478  -2.913   0.618  1.00  0.00    +0.160 HD
BRANCH  18  20
ATOM     20  C   UNL     1       2.501  -3.287   2.737  1.00  0.00    +0.174 C 
BRANCH  20  21
ATOM     21  C   UNL     1       3.926  -2.694   2.838  1.00  0.00    +0.283 C 
BRANCH  21  22
ATOM     22  N   UNL     1       3.974  -1.255   2.365  1.00  0.00    -0.338 N 
ATOM     23  C   UNL     1       5.345  -0.803   1.983  1.00  0.00    +0.332 C 
ATOM     24  C   UNL     1       3.276  -0.280   3.256  1.00  0.00    +0.332 C 
ATOM     25  H   UNL     1       3.435  -1.246   1.469  1.00  0.00    +0.347 HD
ENDBRANCH  21  22
ENDBRANCH  20  21
ENDBRANCH  18  20
ENDBRANCH  10  18
BRANCH   7  26
ATOM     26  C   UNL     1      -3.036  -0.094   1.174  1.00  0.00    +0.250 C 
ATOM     27  O   UNL     1      -4.083  -0.732   1.282  1.00  0.00    -0.269 OA
ATOM     28  N   UNL     1      -3.052   1.248   0.886  1.00  0.00    -0.346 N 
ATOM     29  H   UNL     1      -2.136   1.639   0.635  1.00  0.00    +0.164 HD
BRANCH  28  30
ATOM     30  C   UNL     1      -4.259   2.002   0.637  1.00  0.00    +0.177 C 
BRANCH  30  31
ATOM     31  C   UNL     1      -4.803   1.787  -0.788  1.00  0.00    +0.283 C 
BRANCH  31  32
ATOM     32  N   UNL     1      -5.084   0.317  -1.058  1.00  0.00    -0.338 N 
ATOM     33  C   UNL     1      -4.155  -0.271  -2.081  1.00  0.00    +0.332 C 
ATOM     34  C   UNL     1      -6.516   0.010  -1.321  1.00  0.00    +0.332 C 
ATOM     35  H   UNL     1      -4.850  -0.185  -0.176  1.00  0.00    +0.347 HD
ENDBRANCH  31  32
ENDBRANCH  30  31
ENDBRANCH  28  30
ENDBRANCH   7  26
TORSDOF 9
