REMARK SMILES CC(C)(O)C(=O)NC[C@@H]1CCCc2cc(S(=O)(=O)c3cccc(F)c3)ccc21
REMARK SMILES IDX 8 1 7 2 5 3 6 4 2 6 1 7 3 8 4 9 9 11 10 12 28 13 11 14 27 15
REMARK SMILES IDX 13 16 12 17 26 18 14 19 15 20 16 21 17 22 18 23 19 24 20 25
REMARK SMILES IDX 25 26 21 27 23 28 22 29 24 30
REMARK H PARENT 7 5 4 10
ROOT
ATOM      1  C   UNL     1      -2.367  -1.118  -0.233  1.00  0.00    +0.124 C 
ENDROOT
BRANCH   1   2
ATOM      2  N   UNL     1      -3.722  -0.606  -0.172  1.00  0.00    -0.353 N 
ATOM      3  C   UNL     1      -4.250  -0.038   0.970  1.00  0.00    +0.251 C 
ATOM      4  O   UNL     1      -3.619   0.080   2.015  1.00  0.00    -0.272 OA
ATOM      5  H   UNL     1      -4.340  -0.702  -0.973  1.00  0.00    +0.163 HD
BRANCH   3   6
ATOM      6  C   UNL     1      -5.703   0.462   0.779  1.00  0.00    +0.137 C 
ATOM      7  C   UNL     1      -6.414   0.606   2.122  1.00  0.00    +0.052 C 
ATOM      8  C   UNL     1      -5.678   1.797   0.036  1.00  0.00    +0.052 C 
BRANCH   6   9
ATOM      9  O   UNL     1      -6.431  -0.467  -0.035  1.00  0.00    -0.381 OA
ATOM     10  H   UNL     1      -6.525  -1.285   0.486  1.00  0.00    +0.212 HD
ENDBRANCH   6   9
ENDBRANCH   3   6
ENDBRANCH   1   2
BRANCH   1  11
ATOM     11  C   UNL     1      -1.300  -0.006  -0.393  1.00  0.00    +0.039 C 
ATOM     12  C   UNL     1      -1.604   0.800  -1.676  1.00  0.00    +0.010 C 
ATOM     13  C   UNL     1       0.130  -0.549  -0.358  1.00  0.00    -0.040 A 
ATOM     14  C   UNL     1      -0.440   1.695  -2.068  1.00  0.00    +0.005 C 
ATOM     15  C   UNL     1       0.523  -1.421   0.676  1.00  0.00    +0.006 A 
ATOM     16  C   UNL     1       1.098  -0.140  -1.299  1.00  0.00    -0.043 A 
ATOM     17  C   UNL     1       0.772   0.837  -2.402  1.00  0.00    +0.036 C 
ATOM     18  C   UNL     1       1.820  -1.931   0.741  1.00  0.00    +0.021 A 
ATOM     19  C   UNL     1       2.399  -0.666  -1.241  1.00  0.00    +0.024 A 
ATOM     20  C   UNL     1       2.752  -1.549  -0.219  1.00  0.00    +0.072 A 
BRANCH  20  21
ATOM     21  S   UNL     1       4.407  -2.191  -0.160  1.00  0.00    +0.206 S 
ATOM     22  O   UNL     1       4.812  -2.443  -1.531  1.00  0.00    -0.219 OA
ATOM     23  O   UNL     1       4.442  -3.258   0.824  1.00  0.00    -0.219 OA
BRANCH  21  24
ATOM     24  C   UNL     1       5.426  -0.880   0.474  1.00  0.00    +0.075 A 
ATOM     25  C   UNL     1       6.301  -0.197  -0.378  1.00  0.00    +0.021 A 
ATOM     26  C   UNL     1       5.356  -0.566   1.832  1.00  0.00    +0.060 A 
ATOM     27  C   UNL     1       7.101   0.826   0.134  1.00  0.00    +0.004 A 
ATOM     28  C   UNL     1       6.158   0.455   2.323  1.00  0.00    +0.124 A 
ATOM     29  C   UNL     1       7.026   1.155   1.488  1.00  0.00    +0.039 A 
ATOM     30  F   UNL     1       6.098   0.773   3.622  1.00  0.00    -0.207 F 
ENDBRANCH  21  24
ENDBRANCH  20  21
ENDBRANCH   1  11
TORSDOF 6
