REMARK SMILES O=S1(=O)CCC[NH+]1C[C@@H]1CCC[C@@]2(S(=O)(=O)c3ccc(C(F)(F)F)cc3)c3c(F)ccc(F)c3OC[C@@H]12
REMARK SMILES IDX 9 1 10 2 11 3 12 4 13 5 27 6 28 7 29 8 30 9 31 10 32 11
REMARK SMILES IDX 33 12 34 13 35 14 36 15 37 16 8 17 7 18 1 19 2 20 3 21 4 22
REMARK SMILES IDX 5 23 6 24 14 26 15 27 16 28 17 29 18 30 26 31 19 32 25 33
REMARK SMILES IDX 20 34 21 35 22 36 23 37 24 38
REMARK H PARENT 7 25
ROOT
ATOM      1  C   UNL     1       0.107   0.229   1.414  1.00  0.00    +0.054 C 
ATOM      2  C   UNL     1       1.480   0.594   1.983  1.00  0.00    +0.010 C 
ATOM      3  C   UNL     1       2.470  -0.522   1.673  1.00  0.00    +0.003 C 
ATOM      4  C   UNL     1       2.577  -0.764   0.173  1.00  0.00    +0.029 C 
ATOM      5  C   UNL     1       1.225  -1.029  -0.552  1.00  0.00    +0.115 C 
ATOM      6  C   UNL     1       0.547  -2.378  -0.267  1.00  0.00    +0.055 A 
ATOM      7  C   UNL     1       1.267  -3.582  -0.210  1.00  0.00    +0.131 A 
ATOM      8  F   UNL     1       2.590  -3.587  -0.400  1.00  0.00    -0.206 F 
ATOM      9  C   UNL     1       0.648  -4.805   0.055  1.00  0.00    +0.043 A 
ATOM     10  C   UNL     1      -0.723  -4.858   0.281  1.00  0.00    +0.046 A 
ATOM     11  C   UNL     1      -1.462  -3.685   0.223  1.00  0.00    +0.165 A 
ATOM     12  F   UNL     1      -2.776  -3.724   0.487  1.00  0.00    -0.203 F 
ATOM     13  C   UNL     1      -0.851  -2.461  -0.074  1.00  0.00    +0.162 A 
ATOM     14  O   UNL     1      -1.694  -1.367  -0.079  1.00  0.00    -0.490 OA
ATOM     15  C   UNL     1      -1.149  -0.246  -0.771  1.00  0.00    +0.235 C 
ATOM     16  C   UNL     1       0.208   0.097  -0.162  1.00  0.00    +0.062 C 
ENDROOT
BRANCH   1  17
ATOM     17  C   UNL     1      -0.981   1.206   1.910  1.00  0.00    +0.282 C 
BRANCH  17  18
ATOM     18  N   UNL     1      -2.268   0.473   2.119  1.00  0.00    -0.229 N 
ATOM     19  O   UNL     1      -3.071   2.747   2.716  1.00  0.00    -0.174 OA
ATOM     20  S   UNL     1      -3.595   1.532   2.151  1.00  0.00    +0.295 S 
ATOM     21  O   UNL     1      -4.072   1.389   0.802  1.00  0.00    -0.174 OA
ATOM     22  C   UNL     1      -4.642   0.677   3.325  1.00  0.00    +0.205 C 
ATOM     23  C   UNL     1      -3.922  -0.651   3.494  1.00  0.00    +0.085 C 
ATOM     24  C   UNL     1      -2.427  -0.356   3.352  1.00  0.00    +0.280 C 
ATOM     25  H   UNL     1      -2.504  -0.094   1.295  1.00  0.00    +0.366 HD
ENDBRANCH  17  18
ENDBRANCH   1  17
BRANCH   5  26
ATOM     26  S   UNL     1       1.593  -1.090  -2.400  1.00  0.00    +0.188 S 
ATOM     27  O   UNL     1       2.875  -1.732  -2.616  1.00  0.00    -0.223 OA
ATOM     28  O   UNL     1       0.422  -1.567  -3.111  1.00  0.00    -0.223 OA
BRANCH  26  29
ATOM     29  C   UNL     1       1.818   0.613  -2.900  1.00  0.00    +0.068 A 
ATOM     30  C   UNL     1       3.077   1.208  -2.779  1.00  0.00    +0.021 A 
ATOM     31  C   UNL     1       0.760   1.310  -3.492  1.00  0.00    +0.021 A 
ATOM     32  C   UNL     1       3.258   2.532  -3.188  1.00  0.00    +0.014 A 
ATOM     33  C   UNL     1       0.948   2.633  -3.900  1.00  0.00    +0.014 A 
ATOM     34  C   UNL     1       2.197   3.258  -3.751  1.00  0.00    +0.056 A 
BRANCH  34  35
ATOM     35  C   UNL     1       2.386   4.699  -4.171  1.00  0.00    +0.416 C 
ATOM     36  F   UNL     1       2.036   5.560  -3.176  1.00  0.00    -0.166 F 
ATOM     37  F   UNL     1       1.630   5.042  -5.249  1.00  0.00    -0.166 F 
ATOM     38  F   UNL     1       3.672   5.000  -4.496  1.00  0.00    -0.166 F 
ENDBRANCH  34  35
ENDBRANCH  26  29
ENDBRANCH   5  26
TORSDOF 5
