REMARK SMILES Nc1cccc(-c2ccc(C(=O)[O-])cc2)c1
REMARK SMILES IDX 2 1 3 2 4 3 5 4 6 5 16 6 1 7 7 10 8 11 15 12 9 13 14 14
REMARK SMILES IDX 10 15 11 16 12 17 13 18
REMARK H PARENT 1 8 1 9
ROOT
ATOM      1  C   UNL     1      -3.092   0.327   0.665  1.00  0.00    +0.032 A 
ATOM      2  C   UNL     1      -3.668  -0.527  -0.276  1.00  0.00    +0.025 A 
ATOM      3  C   UNL     1      -2.869  -1.246  -1.166  1.00  0.00    +0.003 A 
ATOM      4  C   UNL     1      -1.481  -1.106  -1.127  1.00  0.00    +0.009 A 
ATOM      5  C   UNL     1      -0.871  -0.245  -0.203  1.00  0.00    -0.016 A 
ATOM      6  C   UNL     1      -1.700   0.469   0.682  1.00  0.00    +0.034 A 
ENDROOT
BRANCH   1   7
ATOM      7  N   UNL     1      -3.886   1.065   1.525  1.00  0.00    -0.399 N 
ATOM      8  H   UNL     1      -3.454   1.639   2.236  1.00  0.00    +0.156 HD
ATOM      9  H   UNL     1      -4.882   0.909   1.564  1.00  0.00    +0.156 HD
ENDBRANCH   1   7
BRANCH   5  10
ATOM     10  C   UNL     1       0.593  -0.091  -0.161  1.00  0.00    -0.018 A 
ATOM     11  C   UNL     1       1.306  -0.277   1.034  1.00  0.00    +0.009 A 
ATOM     12  C   UNL     1       1.320   0.246  -1.313  1.00  0.00    +0.009 A 
ATOM     13  C   UNL     1       2.698  -0.131   1.074  1.00  0.00    +0.010 A 
ATOM     14  C   UNL     1       2.712   0.392  -1.272  1.00  0.00    +0.010 A 
ATOM     15  C   UNL     1       3.423   0.206  -0.078  1.00  0.00    -0.003 A 
BRANCH  15  16
ATOM     16  C   UNL     1       4.931   0.364  -0.034  1.00  0.00    +0.071 C 
ATOM     17  O   UNL     1       5.500   0.187   1.090  1.00  0.00    -0.545 OA
ATOM     18  O   UNL     1       5.515   0.661  -1.124  1.00  0.00    -0.545 OA
ENDBRANCH  15  16
ENDBRANCH   5  10
TORSDOF 3
