REMARK SMILES Cc1ccc(C(=O)Nc2cccc(C(F)(F)F)c2)cc1Nc1nc2ccccc2n1-c1ncnc(NCCC[NH+]2CC[NH+](C)CC2)n1
REMARK SMILES IDX 22 1 23 2 24 3 25 4 26 5 27 6 28 7 29 8 30 9 21 10 20 12
REMARK SMILES IDX 2 13 3 14 4 15 19 16 5 17 1 18 6 19 7 20 8 21 9 23 10 24
REMARK SMILES IDX 18 25 11 26 13 27 12 28 14 29 15 30 16 31 17 32 31 33 32 34
REMARK SMILES IDX 47 35 33 36 35 37 34 38 36 39 37 41 38 42 39 43 40 44 41 45
REMARK SMILES IDX 46 46 42 47 45 48 43 49 44 51
REMARK H PARENT 21 11 8 22 36 40 40 50 43 52
ROOT
ATOM      1  C   UNL     1       1.422  -1.432  -2.759  1.00  0.00    +0.215 A 
ATOM      2  N   UNL     1       2.292  -1.578  -1.782  1.00  0.00    -0.212 NA
ATOM      3  C   UNL     1       2.760  -2.862  -1.912  1.00  0.00    +0.091 A 
ATOM      4  C   UNL     1       3.808  -3.491  -1.223  1.00  0.00    +0.031 A 
ATOM      5  C   UNL     1       4.106  -4.826  -1.520  1.00  0.00    +0.002 A 
ATOM      6  C   UNL     1       3.369  -5.524  -2.475  1.00  0.00    +0.002 A 
ATOM      7  C   UNL     1       2.313  -4.918  -3.164  1.00  0.00    +0.029 A 
ATOM      8  C   UNL     1       2.037  -3.575  -2.868  1.00  0.00    +0.078 A 
ATOM      9  N   UNL     1       1.064  -2.680  -3.281  1.00  0.00    -0.246 N 
ENDROOT
BRANCH   1  10
ATOM     10  N   UNL     1       0.886  -0.280  -3.245  1.00  0.00    -0.325 N 
ATOM     11  H   UNL     1       0.449  -0.304  -4.164  1.00  0.00    +0.170 HD
BRANCH  10  12
ATOM     12  C   UNL     1       0.767   0.972  -2.608  1.00  0.00    +0.045 A 
ATOM     13  C   UNL     1       0.582   2.149  -3.368  1.00  0.00    -0.027 A 
ATOM     14  C   UNL     1       0.371   3.380  -2.718  1.00  0.00    +0.006 A 
ATOM     15  C   UNL     1       0.329   3.457  -1.327  1.00  0.00    +0.014 A 
ATOM     16  C   UNL     1       0.807   1.084  -1.215  1.00  0.00    +0.040 A 
ATOM     17  C   UNL     1       0.539   2.300  -0.582  1.00  0.00    +0.042 A 
ATOM     18  C   UNL     1       0.587   2.127  -4.876  1.00  0.00    +0.046 C 
BRANCH  17  19
ATOM     19  C   UNL     1       0.326   2.295   0.881  1.00  0.00    +0.255 C 
ATOM     20  O   UNL     1      -0.397   1.411   1.351  1.00  0.00    -0.269 OA
ATOM     21  N   UNL     1       1.012   3.264   1.572  1.00  0.00    -0.322 N 
ATOM     22  H   UNL     1       1.751   3.757   1.072  1.00  0.00    +0.170 HD
BRANCH  21  23
ATOM     23  C   UNL     1       0.848   3.615   2.925  1.00  0.00    +0.042 A 
ATOM     24  C   UNL     1      -0.287   3.282   3.668  1.00  0.00    +0.026 A 
ATOM     25  C   UNL     1       1.856   4.380   3.523  1.00  0.00    +0.039 A 
ATOM     26  C   UNL     1      -0.401   3.684   5.002  1.00  0.00    +0.003 A 
ATOM     27  C   UNL     1       1.761   4.774   4.869  1.00  0.00    +0.058 A 
ATOM     28  C   UNL     1       0.620   4.420   5.601  1.00  0.00    +0.013 A 
BRANCH  27  29
ATOM     29  C   UNL     1       2.858   5.605   5.499  1.00  0.00    +0.416 C 
ATOM     30  F   UNL     1       2.708   6.929   5.241  1.00  0.00    -0.166 F 
ATOM     31  F   UNL     1       2.912   5.474   6.851  1.00  0.00    -0.166 F 
ATOM     32  F   UNL     1       4.092   5.262   5.037  1.00  0.00    -0.166 F 
ENDBRANCH  27  29
ENDBRANCH  21  23
ENDBRANCH  17  19
ENDBRANCH  10  12
ENDBRANCH   1  10
BRANCH   9  33
ATOM     33  C   UNL     1      -0.193  -2.982  -3.890  1.00  0.00    +0.241 A 
ATOM     34  N   UNL     1      -0.409  -4.183  -4.416  1.00  0.00    -0.200 NA
ATOM     35  N   UNL     1      -1.158  -2.077  -3.683  1.00  0.00    -0.176 NA
ATOM     36  C   UNL     1      -1.678  -4.413  -4.750  1.00  0.00    +0.230 A 
ATOM     37  C   UNL     1      -2.400  -2.444  -3.957  1.00  0.00    +0.227 A 
ATOM     38  N   UNL     1      -2.709  -3.602  -4.509  1.00  0.00    -0.201 NA
BRANCH  37  39
ATOM     39  N   UNL     1      -3.428  -1.643  -3.528  1.00  0.00    -0.354 N 
ATOM     40  H   UNL     1      -4.339  -1.931  -3.869  1.00  0.00    +0.163 HD
BRANCH  39  41
ATOM     41  C   UNL     1      -3.220  -0.318  -2.986  1.00  0.00    +0.122 C 
BRANCH  41  42
ATOM     42  C   UNL     1      -3.131  -0.306  -1.447  1.00  0.00    +0.083 C 
BRANCH  42  43
ATOM     43  C   UNL     1      -2.066  -1.247  -0.897  1.00  0.00    +0.264 C 
BRANCH  43  44
ATOM     44  N   UNL     1      -1.667  -0.941   0.542  1.00  0.00    -0.326 N 
ATOM     45  C   UNL     1      -0.566  -1.907   0.992  1.00  0.00    +0.324 C 
ATOM     46  C   UNL     1      -2.816  -0.899   1.536  1.00  0.00    +0.324 C 
ATOM     47  C   UNL     1       0.043  -1.502   2.358  1.00  0.00    +0.324 C 
ATOM     48  C   UNL     1      -2.322  -0.878   3.012  1.00  0.00    +0.324 C 
ATOM     49  N   UNL     1      -0.848  -0.530   3.118  1.00  0.00    -0.328 N 
ATOM     50  H   UNL     1      -1.245   0.009   0.529  1.00  0.00    +0.348 HD
ATOM     51  C   UNL     1      -0.391  -0.343   4.542  1.00  0.00    +0.333 C 
ATOM     52  H   UNL     1      -0.704   0.397   2.660  1.00  0.00    +0.348 HD
ENDBRANCH  43  44
ENDBRANCH  42  43
ENDBRANCH  41  42
ENDBRANCH  39  41
ENDBRANCH  37  39
ENDBRANCH   9  33
TORSDOF 11
