REMARK SMILES Cn1ncc(Cl)c1-c1cc(NC(=O)c2cccc(C(F)(F)F)c2)ccc1OCC[NH+]1CCNC(=O)C1
REMARK SMILES IDX 8 1 9 2 10 3 24 4 25 5 26 6 7 7 2 8 3 9 4 10 5 11 1 12 6 13
REMARK SMILES IDX 27 14 28 15 29 16 30 17 31 18 36 19 32 20 34 21 33 22 35 23
REMARK SMILES IDX 11 26 12 27 13 28 14 30 15 31 23 32 16 33 18 34 17 35 19 36
REMARK SMILES IDX 20 37 21 38 22 39
REMARK H PARENT 30 24 33 25 11 29
ROOT
ATOM      1  C   UNL     1      -0.132  -0.375   0.001  1.00  0.00    +0.045 A 
ATOM      2  C   UNL     1       1.083   0.195  -0.402  1.00  0.00    +0.040 A 
ATOM      3  C   UNL     1       1.982   0.702   0.542  1.00  0.00    +0.042 A 
ATOM      4  C   UNL     1       1.654   0.626   1.903  1.00  0.00    +0.030 A 
ATOM      5  C   UNL     1       0.443   0.066   2.319  1.00  0.00    +0.049 A 
ATOM      6  C   UNL     1      -0.452  -0.413   1.367  1.00  0.00    +0.129 A 
ENDROOT
BRANCH   1   7
ATOM      7  C   UNL     1      -1.073  -0.894  -0.986  1.00  0.00    +0.090 A 
ATOM      8  N   UNL     1      -1.507  -2.200  -1.029  1.00  0.00    -0.266 N 
ATOM      9  N   UNL     1      -2.650  -2.339  -1.740  1.00  0.00    -0.180 NA
ATOM     10  C   UNL     1      -2.667  -1.228  -2.488  1.00  0.00    +0.156 A 
ATOM     11  C   UNL     1      -1.741  -0.276  -2.026  1.00  0.00    +0.087 A 
ATOM     12  C   UNL     1      -0.956  -3.350  -0.348  1.00  0.00    +0.174 C 
ATOM     13 Cl   UNL     1      -1.617   1.320  -2.577  1.00  0.00    -0.080 Cl
ENDBRANCH   1   7
BRANCH   6  14
ATOM     14  O   UNL     1      -1.635  -0.993   1.758  1.00  0.00    -0.487 OA
BRANCH  14  15
ATOM     15  C   UNL     1      -2.573  -0.004   2.203  1.00  0.00    +0.290 C 
BRANCH  15  16
ATOM     16  C   UNL     1      -3.957  -0.665   2.249  1.00  0.00    +0.304 C 
BRANCH  16  17
ATOM     17  N   UNL     1      -4.459  -1.055   0.868  1.00  0.00    -0.323 N 
ATOM     18  C   UNL     1      -5.543  -2.115   0.933  1.00  0.00    +0.284 C 
ATOM     19  C   UNL     1      -4.945   0.147   0.050  1.00  0.00    +0.363 C 
ATOM     20  C   UNL     1      -5.935  -2.554  -0.481  1.00  0.00    +0.177 C 
ATOM     21  C   UNL     1      -5.657  -0.199  -1.260  1.00  0.00    +0.275 C 
ATOM     22  N   UNL     1      -6.201  -1.449  -1.381  1.00  0.00    -0.346 N 
ATOM     23  O   UNL     1      -5.798   0.625  -2.158  1.00  0.00    -0.269 OA
ATOM     24  H   UNL     1      -3.675  -1.467   0.329  1.00  0.00    +0.348 HD
ATOM     25  H   UNL     1      -6.672  -1.627  -2.264  1.00  0.00    +0.163 HD
ENDBRANCH  16  17
ENDBRANCH  15  16
ENDBRANCH  14  15
ENDBRANCH   6  14
BRANCH   3  26
ATOM     26  N   UNL     1       3.227   1.280   0.212  1.00  0.00    -0.322 N 
ATOM     27  C   UNL     1       3.736   1.500  -1.057  1.00  0.00    +0.255 C 
ATOM     28  O   UNL     1       3.158   1.303  -2.119  1.00  0.00    -0.269 OA
ATOM     29  H   UNL     1       3.785   1.604   0.991  1.00  0.00    +0.170 HD
BRANCH  27  30
ATOM     30  C   UNL     1       5.113   2.070  -1.096  1.00  0.00    +0.040 A 
ATOM     31  C   UNL     1       5.429   2.982  -2.109  1.00  0.00    +0.014 A 
ATOM     32  C   UNL     1       6.096   1.690  -0.171  1.00  0.00    +0.027 A 
ATOM     33  C   UNL     1       6.709   3.533  -2.182  1.00  0.00    +0.001 A 
ATOM     34  C   UNL     1       7.386   2.246  -0.233  1.00  0.00    +0.056 A 
ATOM     35  C   UNL     1       7.681   3.169  -1.249  1.00  0.00    +0.013 A 
BRANCH  34  36
ATOM     36  C   UNL     1       8.446   1.819   0.753  1.00  0.00    +0.416 C 
ATOM     37  F   UNL     1       9.419   2.752   0.940  1.00  0.00    -0.166 F 
ATOM     38  F   UNL     1       9.078   0.678   0.371  1.00  0.00    -0.166 F 
ATOM     39  F   UNL     1       7.929   1.566   1.989  1.00  0.00    -0.166 F 
ENDBRANCH  34  36
ENDBRANCH  27  30
ENDBRANCH   3  26
TORSDOF 8
