REMARK SMILES CC1=C2C3=CC[C@@H]4[C@@]5(C)C[C@@H](O)[C@H](O)C(C)(C)[C@@H]5CC[C@@]4(C)[C@]3(C)CC[C@@]2(C(=O)O[C@@H]2O[C@H](CO)[C@@H](O)[C@H](O)[C@H]2O)CC[C@H]1C
REMARK SMILES IDX 30 1 28 2 29 3 27 4 2 5 3 6 44 7 4 8 43 9 5 10 23 11 26 12
REMARK SMILES IDX 42 13 6 14 21 15 25 16 7 17 20 18 8 19 19 20 10 21 18 22
REMARK SMILES IDX 11 23 15 24 13 25 1 26 45 27 24 28 22 29 9 30 16 31 17 32
REMARK SMILES IDX 12 33 14 35 31 37 32 38 40 39 33 40 38 41 36 42 41 43 34 45
REMARK SMILES IDX 35 46 39 48 37 50
REMARK H PARENT 12 34 14 36 41 44 35 47 39 49 37 51
ROOT
ATOM      1  O   UNL     1      -3.659  -0.376  -0.034  1.00  0.00    -0.432 OA
ENDROOT
BRANCH   1   2
ATOM      2  C   UNL     1      -2.897  -0.655   1.059  1.00  0.00    +0.318 C 
ATOM      3  O   UNL     1      -2.817   0.074   2.042  1.00  0.00    -0.251 OA
BRANCH   2   4
ATOM      4  C   UNL     1      -2.232  -2.051   0.929  1.00  0.00    +0.093 C 
ATOM      5  C   UNL     1      -0.696  -2.811   2.808  1.00  0.00    -0.066 C 
ATOM      6  C   UNL     1      -0.910  -2.043   1.707  1.00  0.00    -0.028 C 
ATOM      7  C   UNL     1      -1.801  -3.657   3.432  1.00  0.00    +0.012 C 
ATOM      8  C   UNL     1       0.117  -1.161   1.120  1.00  0.00    -0.041 C 
ATOM      9  C   UNL     1      -3.197  -3.205   2.983  1.00  0.00    +0.009 C 
ATOM     10  C   UNL     1       0.700  -0.211   1.874  1.00  0.00    -0.022 C 
ATOM     11  C   UNL     1       0.453  -1.365  -0.369  1.00  0.00    -0.002 C 
ATOM     12  C   UNL     1      -1.912  -2.437  -0.539  1.00  0.00    +0.024 C 
ATOM     13  C   UNL     1      -3.269  -3.068   1.468  1.00  0.00    +0.024 C 
ATOM     14  C   UNL     1       1.817   0.680   1.429  1.00  0.00    +0.032 C 
ATOM     15  C   UNL     1       1.349  -0.127  -0.956  1.00  0.00    -0.019 C 
ATOM     16  C   UNL     1      -0.874  -1.512  -1.181  1.00  0.00    +0.013 C 
ATOM     17  C   UNL     1       2.466   0.229   0.101  1.00  0.00    +0.006 C 
ATOM     18  C   UNL     1       2.003  -0.511  -2.312  1.00  0.00    +0.008 C 
ATOM     19  C   UNL     1       3.675   1.150  -0.390  1.00  0.00    -0.023 C 
ATOM     20  C   UNL     1       3.104   0.440  -2.785  1.00  0.00    +0.005 C 
ATOM     21  C   UNL     1       4.814   1.080   0.674  1.00  0.00    +0.042 C 
ATOM     22  C   UNL     1       4.223   0.529  -1.729  1.00  0.00    +0.004 C 
ATOM     23  C   UNL     1       6.146   1.667   0.206  1.00  0.00    +0.144 C 
ATOM     24  C   UNL     1       5.592   1.099  -2.257  1.00  0.00    -0.003 C 
ATOM     25  C   UNL     1       6.627   1.027  -1.101  1.00  0.00    +0.149 C 
ATOM     26  C   UNL     1       0.624  -2.905   3.542  1.00  0.00    +0.040 C 
ATOM     27  C   UNL     1      -1.593  -5.149   3.139  1.00  0.00    +0.012 C 
ATOM     28  C   UNL     1       1.212  -2.724  -0.461  1.00  0.00    +0.017 C 
ATOM     29  C   UNL     1       0.437   1.109  -1.219  1.00  0.00    +0.012 C 
ATOM     30  C   UNL     1       3.271   2.639  -0.530  1.00  0.00    +0.012 C 
ATOM     31  C   UNL     1       6.129   0.196  -3.403  1.00  0.00    +0.014 C 
ATOM     32  C   UNL     1       5.495   2.519  -2.848  1.00  0.00    +0.014 C 
BRANCH  23  33
ATOM     33  O   UNL     1       7.148   1.424   1.207  1.00  0.00    -0.390 OA
ATOM     34  H   UNL     1       6.839   1.841   2.030  1.00  0.00    +0.211 HD
ENDBRANCH  23  33
BRANCH  25  35
ATOM     35  O   UNL     1       7.863   1.649  -1.477  1.00  0.00    -0.390 OA
ATOM     36  H   UNL     1       8.400   1.647  -0.659  1.00  0.00    +0.211 HD
ENDBRANCH  25  35
ENDBRANCH   2   4
ENDBRANCH   1   2
BRANCH   1  37
ATOM     37  C   UNL     1      -4.319   0.895  -0.007  1.00  0.00    +0.342 C 
ATOM     38  O   UNL     1      -5.602   0.732   0.609  1.00  0.00    -0.332 OA
ATOM     39  C   UNL     1      -4.485   1.368  -1.463  1.00  0.00    +0.214 C 
ATOM     40  C   UNL     1      -6.340   1.955   0.680  1.00  0.00    +0.179 C 
ATOM     41  C   UNL     1      -5.305   2.657  -1.493  1.00  0.00    +0.180 C 
ATOM     42  C   UNL     1      -6.622   2.501  -0.731  1.00  0.00    +0.177 C 
BRANCH  39  43
ATOM     43  O   UNL     1      -3.215   1.616  -2.088  1.00  0.00    -0.384 OA
ATOM     44  H   UNL     1      -3.433   2.059  -2.933  1.00  0.00    +0.211 HD
ENDBRANCH  39  43
BRANCH  40  45
ATOM     45  C   UNL     1      -7.641   1.676   1.445  1.00  0.00    +0.191 C 
BRANCH  45  46
ATOM     46  O   UNL     1      -8.463   2.839   1.498  1.00  0.00    -0.394 OA
ATOM     47  H   UNL     1      -9.201   2.628   2.100  1.00  0.00    +0.210 HD
ENDBRANCH  45  46
ENDBRANCH  40  45
BRANCH  41  48
ATOM     48  O   UNL     1      -5.565   3.021  -2.859  1.00  0.00    -0.387 OA
ATOM     49  H   UNL     1      -6.220   3.747  -2.802  1.00  0.00    +0.211 HD
ENDBRANCH  41  48
BRANCH  42  50
ATOM     50  O   UNL     1      -7.262   3.783  -0.713  1.00  0.00    -0.387 OA
ATOM     51  H   UNL     1      -7.934   3.747   0.005  1.00  0.00    +0.211 HD
ENDBRANCH  42  50
ENDBRANCH   1  37
TORSDOF 10
