REMARK SMILES CCCC1(CCC)CCC2(CC[NH+](CCC[NH+](C)C)CC2)CC1
REMARK SMILES IDX 14 1 13 2 4 3 8 4 23 5 9 6 22 7 10 8 11 9 21 10 12 11 20 12
REMARK SMILES IDX 3 14 2 15 1 16 5 17 6 18 7 19 15 20 16 21 17 22 18 23 19 24
REMARK H PARENT 13 13 17 25
ROOT
ATOM      1  C   UNL     1       3.638   0.852  -0.012  1.00  0.00    +0.268 C 
ENDROOT
BRANCH   1   2
ATOM      2  N   UNL     1       2.422   0.131   0.540  1.00  0.00    -0.335 N 
ATOM      3  C   UNL     1      -3.622   0.022   0.463  1.00  0.00    -0.030 C 
ATOM      4  C   UNL     1      -2.679  -1.058   1.061  1.00  0.00    +0.007 C 
ATOM      5  C   UNL     1      -2.787   1.307   0.214  1.00  0.00    +0.007 C 
ATOM      6  C   UNL     1      -1.413  -1.303   0.234  1.00  0.00    +0.008 C 
ATOM      7  C   UNL     1      -1.504   1.077  -0.590  1.00  0.00    +0.008 C 
ATOM      8  C   UNL     1      -0.578  -0.022  -0.008  1.00  0.00    -0.019 C 
ATOM      9  C   UNL     1       0.535  -0.312  -1.053  1.00  0.00    +0.068 C 
ATOM     10  C   UNL     1       0.074   0.435   1.328  1.00  0.00    +0.068 C 
ATOM     11  C   UNL     1       1.795  -0.878  -0.418  1.00  0.00    +0.262 C 
ATOM     12  C   UNL     1       1.407   1.131   1.102  1.00  0.00    +0.262 C 
ATOM     13  H   UNL     1       2.714  -0.416   1.363  1.00  0.00    +0.348 HD
BRANCH   3  14
ATOM     14  C   UNL     1      -4.245  -0.517  -0.864  1.00  0.00    +0.007 C 
BRANCH  14  15
ATOM     15  C   UNL     1      -5.278   0.392  -1.541  1.00  0.00    -0.003 C 
ATOM     16  C   UNL     1      -5.814  -0.242  -2.817  1.00  0.00    +0.004 C 
ENDBRANCH  14  15
ENDBRANCH   3  14
BRANCH   3  17
ATOM     17  C   UNL     1      -4.723   0.382   1.511  1.00  0.00    +0.007 C 
BRANCH  17  18
ATOM     18  C   UNL     1      -5.686  -0.751   1.886  1.00  0.00    -0.003 C 
ATOM     19  C   UNL     1      -6.705  -0.286   2.917  1.00  0.00    +0.004 C 
ENDBRANCH  17  18
ENDBRANCH   3  17
ENDBRANCH   1   2
BRANCH   1  20
ATOM     20  C   UNL     1       4.879  -0.054  -0.013  1.00  0.00    +0.123 C 
BRANCH  20  21
ATOM     21  C   UNL     1       6.104   0.708  -0.539  1.00  0.00    +0.267 C 
BRANCH  21  22
ATOM     22  N   UNL     1       7.369  -0.123  -0.448  1.00  0.00    -0.340 N 
ATOM     23  C   UNL     1       8.607   0.745  -0.592  1.00  0.00    +0.332 C 
ATOM     24  C   UNL     1       7.435  -1.268  -1.433  1.00  0.00    +0.332 C 
ATOM     25  H   UNL     1       7.442  -0.535   0.494  1.00  0.00    +0.347 HD
ENDBRANCH  21  22
ENDBRANCH  20  21
ENDBRANCH   1  20
TORSDOF 8
