REMARK SMILES NC(=O)c1ccc2c(c1)nc(NCc1ccccc1Cl)n2CCc1c[nH]c2ccccc12
REMARK SMILES IDX 4 1 5 2 6 3 7 4 8 5 9 6 10 7 11 8 21 9 2 10 1 11 3 12 22 15
REMARK SMILES IDX 23 16 24 17 25 18 32 19 26 20 31 21 27 22 30 23 28 24 29 25
REMARK SMILES IDX 12 27 13 29 14 30 15 31 19 32 16 33 18 34 17 35 20 36
REMARK H PARENT 1 13 1 14 26 26 12 28
ROOT
ATOM      1  C   UNL     1      -2.338  -4.514  -0.594  1.00  0.00    +0.041 A 
ATOM      2  C   UNL     1      -0.974  -4.539  -0.264  1.00  0.00    +0.016 A 
ATOM      3  C   UNL     1      -0.277  -3.371   0.072  1.00  0.00    +0.029 A 
ATOM      4  C   UNL     1      -1.005  -2.176   0.059  1.00  0.00    +0.070 A 
ATOM      5  C   UNL     1      -2.352  -2.121  -0.278  1.00  0.00    +0.092 A 
ATOM      6  C   UNL     1      -3.038  -3.298  -0.615  1.00  0.00    +0.044 A 
ATOM      7  N   UNL     1      -2.821  -0.835  -0.229  1.00  0.00    -0.213 NA
ATOM      8  C   UNL     1      -1.800  -0.092   0.131  1.00  0.00    +0.204 A 
ATOM      9  N   UNL     1      -0.675  -0.865   0.320  1.00  0.00    -0.310 N 
ENDROOT
BRANCH   1  10
ATOM     10  C   UNL     1      -2.993  -5.805  -0.937  1.00  0.00    +0.248 C 
ATOM     11  N   UNL     1      -4.355  -5.874  -0.859  1.00  0.00    -0.366 N 
ATOM     12  O   UNL     1      -2.339  -6.791  -1.255  1.00  0.00    -0.270 OA
ATOM     13  H   UNL     1      -4.949  -5.128  -0.529  1.00  0.00    +0.159 HD
ATOM     14  H   UNL     1      -4.785  -6.760  -1.089  1.00  0.00    +0.159 HD
ENDBRANCH   1  10
BRANCH   9  15
ATOM     15  C   UNL     1       0.641  -0.387   0.701  1.00  0.00    +0.131 C 
BRANCH  15  16
ATOM     16  C   UNL     1       1.438   0.103  -0.506  1.00  0.00    +0.060 C 
BRANCH  16  17
ATOM     17  C   UNL     1       2.771   0.648  -0.105  1.00  0.00    -0.021 A 
ATOM     18  C   UNL     1       3.085   1.979   0.091  1.00  0.00    +0.087 A 
ATOM     19  C   UNL     1       3.962  -0.104   0.154  1.00  0.00    +0.003 A 
ATOM     20  N   UNL     1       4.402   2.060   0.455  1.00  0.00    -0.361 N 
ATOM     21  C   UNL     1       4.283  -1.477   0.122  1.00  0.00    +0.010 A 
ATOM     22  C   UNL     1       4.960   0.804   0.508  1.00  0.00    +0.046 A 
ATOM     23  C   UNL     1       5.580  -1.889   0.446  1.00  0.00    +0.001 A 
ATOM     24  C   UNL     1       6.263   0.409   0.834  1.00  0.00    +0.026 A 
ATOM     25  C   UNL     1       6.554  -0.957   0.798  1.00  0.00    +0.002 A 
ATOM     26  H   UNL     1       4.901   2.916   0.655  1.00  0.00    +0.166 HD
ENDBRANCH  16  17
ENDBRANCH  15  16
ENDBRANCH   9  15
BRANCH   8  27
ATOM     27  N   UNL     1      -1.785   1.243   0.294  1.00  0.00    -0.351 N 
ATOM     28  H   UNL     1      -0.959   1.772   0.542  1.00  0.00    +0.163 HD
BRANCH  27  29
ATOM     29  C   UNL     1      -2.961   2.015  -0.051  1.00  0.00    +0.153 C 
BRANCH  29  30
ATOM     30  C   UNL     1      -2.783   3.445   0.407  1.00  0.00    -0.010 A 
ATOM     31  C   UNL     1      -3.325   3.834   1.646  1.00  0.00    +0.007 A 
ATOM     32  C   UNL     1      -2.064   4.395  -0.335  1.00  0.00    +0.046 A 
ATOM     33  C   UNL     1      -3.175   5.140   2.117  1.00  0.00    +0.000 A 
ATOM     34  C   UNL     1      -1.917   5.703   0.139  1.00  0.00    +0.021 A 
ATOM     35  C   UNL     1      -2.474   6.076   1.362  1.00  0.00    +0.002 A 
ATOM     36 Cl   UNL     1      -1.311   4.001  -1.838  1.00  0.00    -0.084 Cl
ENDBRANCH  29  30
ENDBRANCH  27  29
ENDBRANCH   8  27
TORSDOF 7
