REMARK SMILES O=S(=O)(c1ccc(Br)cc1)c1ccc(-c2n[n-]c(=S)[n-]2)cc1
REMARK SMILES IDX 1 1 2 2 3 3 4 4 5 5 10 6 6 7 9 8 7 9 8 10 11 11 12 12 22 13
REMARK SMILES IDX 13 14 21 15 14 16 15 17 16 18 20 19 17 20 18 21 19 22
REMARK H PARENT
ROOT
ATOM      1  O   UNL     1       1.518   3.008   0.573  1.00  0.00    -0.219 OA
ATOM      2  S   UNL     1       1.288   1.748   1.258  1.00  0.00    +0.206 S 
ATOM      3  O   UNL     1       1.344   1.686   2.709  1.00  0.00    -0.219 OA
ENDROOT
BRANCH   2   4
ATOM      4  C   UNL     1       2.545   0.642   0.639  1.00  0.00    +0.072 A 
ATOM      5  C   UNL     1       2.439   0.128  -0.657  1.00  0.00    +0.022 A 
ATOM      6  C   UNL     1       3.613   0.283   1.468  1.00  0.00    +0.022 A 
ATOM      7  C   UNL     1       3.415  -0.752  -1.128  1.00  0.00    +0.017 A 
ATOM      8  C   UNL     1       4.588  -0.594   0.990  1.00  0.00    +0.017 A 
ATOM      9  C   UNL     1       4.485  -1.107  -0.305  1.00  0.00    +0.018 A 
ATOM     10 Br   UNL     1       5.810  -2.293  -0.947  1.00  0.00    -0.051 Br
ENDBRANCH   2   4
BRANCH   2  11
ATOM     11  C   UNL     1      -0.280   1.094   0.761  1.00  0.00    +0.072 A 
ATOM     12  C   UNL     1      -1.061   1.786  -0.169  1.00  0.00    +0.021 A 
ATOM     13  C   UNL     1      -0.679  -0.150   1.259  1.00  0.00    +0.021 A 
ATOM     14  C   UNL     1      -2.241   1.203  -0.634  1.00  0.00    +0.010 A 
ATOM     15  C   UNL     1      -1.858  -0.723   0.786  1.00  0.00    +0.010 A 
ATOM     16  C   UNL     1      -2.636  -0.059  -0.172  1.00  0.00    -0.024 A 
BRANCH  16  17
ATOM     17  C   UNL     1      -3.844  -0.737  -0.685  1.00  0.00    -0.060 C 
ATOM     18  N   UNL     1      -4.233  -1.912  -0.310  1.00  0.00    -0.391 NA
ATOM     19  N   UNL     1      -4.611  -0.160  -1.601  1.00  0.00    -0.652 NA
ATOM     20  N   UNL     1      -5.356  -2.153  -1.027  1.00  0.00    -0.587 NA
ATOM     21  C   UNL     1      -5.553  -1.079  -1.797  1.00  0.00    -0.174 C 
ATOM     22  S   UNL     1      -6.827  -0.899  -2.882  1.00  0.00    -0.131 S 
ENDBRANCH  16  17
ENDBRANCH   2  11
TORSDOF 3
