REMARK SMILES CC(C)(C)NC(=O)O[C@H]1C[C@H]2C[C@@H]([NH2+]CC(=O)[NH+]3CCC[C@H]3C#N)C[C@H]2C1
REMARK SMILES IDX 9 1 10 2 11 3 12 4 13 5 25 6 26 7 27 8 8 9 6 10 5 11 7 12
REMARK SMILES IDX 2 14 1 15 3 16 4 17 14 18 15 21 16 22 17 23 18 24 19 25
REMARK SMILES IDX 22 26 20 27 21 28 23 29 24 30
REMARK H PARENT 5 13 14 19 14 20 18 31
ROOT
ATOM      1  C   UNL     1       2.833   1.093   0.886  1.00  0.00    +0.179 C 
ATOM      2  C   UNL     1       1.905   1.049  -0.330  1.00  0.00    +0.049 C 
ATOM      3  C   UNL     1       0.618   1.689   0.177  1.00  0.00    +0.002 C 
ATOM      4  C   UNL     1      -0.673   1.097  -0.386  1.00  0.00    +0.069 C 
ATOM      5  C   UNL     1      -1.606   1.084   0.819  1.00  0.00    +0.183 C 
ATOM      6  C   UNL     1      -0.695   0.644   1.961  1.00  0.00    +0.069 C 
ATOM      7  C   UNL     1       0.589   1.429   1.697  1.00  0.00    +0.002 C 
ATOM      8  C   UNL     1       1.889   0.699   2.024  1.00  0.00    +0.049 C 
ENDROOT
BRANCH   1   9
ATOM      9  O   UNL     1       3.896   0.147   0.798  1.00  0.00    -0.446 OA
BRANCH   9  10
ATOM     10  C   UNL     1       4.904   0.504  -0.041  1.00  0.00    +0.407 C 
ATOM     11  N   UNL     1       5.876  -0.445   0.009  1.00  0.00    -0.317 N 
ATOM     12  O   UNL     1       4.909   1.517  -0.722  1.00  0.00    -0.225 OA
ATOM     13  H   UNL     1       5.704  -1.199   0.660  1.00  0.00    +0.167 HD
BRANCH  11  14
ATOM     14  C   UNL     1       7.140  -0.421  -0.736  1.00  0.00    +0.035 C 
ATOM     15  C   UNL     1       6.882  -0.410  -2.251  1.00  0.00    +0.034 C 
ATOM     16  C   UNL     1       7.927  -1.696  -0.386  1.00  0.00    +0.034 C 
ATOM     17  C   UNL     1       7.984   0.800  -0.338  1.00  0.00    +0.034 C 
ENDBRANCH  11  14
ENDBRANCH   9  10
ENDBRANCH   1   9
BRANCH   5  18
ATOM     18  N   UNL     1      -2.726   0.116   0.644  1.00  0.00    -0.333 N 
ATOM     19  H   UNL     1      -2.339  -0.819   0.424  1.00  0.00    +0.347 HD
ATOM     20  H   UNL     1      -3.177  -0.013   1.576  1.00  0.00    +0.347 HD
BRANCH  18  21
ATOM     21  C   UNL     1      -3.782   0.499  -0.385  1.00  0.00    +0.407 C 
BRANCH  21  22
ATOM     22  C   UNL     1      -4.890  -0.574  -0.521  1.00  0.00    +0.367 C 
ATOM     23  O   UNL     1      -4.622  -1.766  -0.542  1.00  0.00    -0.224 OA
BRANCH  22  24
ATOM     24  N   UNL     1      -6.353  -0.272  -0.449  1.00  0.00    -0.252 N 
ATOM     25  C   UNL     1      -7.167  -1.119  -1.422  1.00  0.00    +0.271 C 
ATOM     26  C   UNL     1      -6.935  -0.559   0.963  1.00  0.00    +0.296 C 
ATOM     27  C   UNL     1      -8.150  -1.899  -0.561  1.00  0.00    +0.069 C 
ATOM     28  C   UNL     1      -7.517  -1.950   0.818  1.00  0.00    +0.088 C 
ATOM     29  C   UNL     1      -5.897  -0.418   1.996  1.00  0.00    +0.127 C 
ATOM     30  N   UNL     1      -4.893  -0.220   2.547  1.00  0.00    -0.192 NA
ATOM     31  H   UNL     1      -6.498   0.717  -0.678  1.00  0.00    +0.358 HD
ENDBRANCH  22  24
ENDBRANCH  21  22
ENDBRANCH  18  21
ENDBRANCH   5  18
TORSDOF 7
