REMARK SMILES CC(C)(O)c1ccc(C[NH+]2C(=O)[NH+](Cc3ccc(C(C)(C)O)cc3)[C@H](Cc3ccccc3)[C@H](O)[C@@H](O)[C@H]2Cc2ccccc2)cc1
REMARK SMILES IDX 11 1 12 2 10 3 9 5 8 6 5 7 6 8 46 9 7 10 45 11 2 12 1 13
REMARK SMILES IDX 3 14 4 15 37 17 35 18 36 20 38 22 39 23 40 24 44 25 41 26
REMARK SMILES IDX 43 27 42 28 13 29 14 31 15 32 16 33 24 34 17 35 23 36 18 37
REMARK SMILES IDX 19 38 20 39 21 40 22 41 25 43 26 44 27 45 28 46 32 47 29 48
REMARK SMILES IDX 31 49 30 50 33 51 34 53
REMARK H PARENT 10 4 4 16 36 21 13 30 22 42 34 54
REMARK Flexibility Score:   79.900
ROOT
ATOM      1  C   UNL     1       0.937   0.086   1.324  1.00  0.00    +0.512 C 
ATOM      2  O   UNL     1       0.865   0.920   2.201  1.00  0.00    -0.171 OA
ENDROOT
BRANCH   1   3
ATOM      3  N   UNL     1      -0.183   0.018   0.440  1.00  0.00    -0.209 N 
ATOM      4  H   UNL     1      -0.913   0.313   1.109  1.00  0.00    +0.362 HD
BRANCH   3   5
ATOM      5  C   UNL     1      -0.124   1.112  -0.601  1.00  0.00    +0.312 C 
BRANCH   5   6
ATOM      6  C   UNL     1      -1.390   1.922  -0.677  1.00  0.00    +0.007 A 
ATOM      7  C   UNL     1      -3.826   3.377  -0.800  1.00  0.00    -0.017 A 
ATOM      8  C   UNL     1      -3.068   3.320   0.382  1.00  0.00    +0.007 A 
ATOM      9  C   UNL     1      -3.307   2.738  -1.935  1.00  0.00    +0.007 A 
ATOM     10  C   UNL     1      -1.867   2.611   0.446  1.00  0.00    +0.010 A 
ATOM     11  C   UNL     1      -2.105   2.023  -1.877  1.00  0.00    +0.010 A 
BRANCH   7  12
ATOM     12  C   UNL     1      -5.137   4.164  -0.831  1.00  0.00    +0.084 C 
ATOM     13  C   UNL     1      -6.182   3.594  -1.798  1.00  0.00    +0.047 C 
ATOM     14  C   UNL     1      -4.853   5.634  -1.159  1.00  0.00    +0.047 C 
BRANCH  12  15
ATOM     15  O   UNL     1      -5.716   4.100   0.480  1.00  0.00    -0.386 OA
ATOM     16  H   UNL     1      -6.518   4.653   0.475  1.00  0.00    +0.211 HD
ENDBRANCH  12  15
ENDBRANCH   7  12
ENDBRANCH   5   6
ENDBRANCH   3   5
BRANCH   3  17
ATOM     17  C   UNL     1      -0.624  -1.374   0.013  1.00  0.00    +0.233 C 
BRANCH  17  18
ATOM     18  C   UNL     1      -0.622  -2.307   1.278  1.00  0.00    +0.208 CG0
ATOM     19  G   UNL     1       0.766  -2.904   1.623  1.00  0.00    +0.000 G0
BRANCH  18  20
ATOM     20  O   UNL     1      -1.110  -1.537   2.381  1.00  0.00    -0.384 OA
ATOM     21  H   UNL     1      -1.725  -2.101   2.903  1.00  0.00    +0.211 HD
ENDBRANCH  18  20
ENDBRANCH  17  18
BRANCH  17  22
ATOM     22  C   UNL     1      -2.038  -1.315  -0.621  1.00  0.00    +0.104 C 
BRANCH  22  23
ATOM     23  C   UNL     1      -2.532  -2.662  -1.089  1.00  0.00    -0.042 A 
ATOM     24  C   UNL     1      -3.662  -3.243  -0.495  1.00  0.00    +0.004 A 
ATOM     25  C   UNL     1      -1.877  -3.350  -2.122  1.00  0.00    +0.004 A 
ATOM     26  C   UNL     1      -4.108  -4.499  -0.905  1.00  0.00    +0.000 A 
ATOM     27  C   UNL     1      -2.328  -4.607  -2.529  1.00  0.00    +0.000 A 
ATOM     28  C   UNL     1      -3.439  -5.183  -1.916  1.00  0.00    +0.000 A 
ENDBRANCH  22  23
ENDBRANCH  17  22
ENDBRANCH   3  17
ENDBRANCH   1   3
BRANCH   1  29
ATOM     29  N   UNL     1       2.053  -0.828   1.341  1.00  0.00    -0.209 N 
ATOM     30  H   UNL     1       2.110  -1.304   0.434  1.00  0.00    +0.362 HD
BRANCH  29  31
ATOM     31  C   UNL     1       3.354  -0.074   1.478  1.00  0.00    +0.312 C 
BRANCH  31  32
ATOM     32  C   UNL     1       3.527   0.879   0.325  1.00  0.00    +0.007 A 
ATOM     33  C   UNL     1       3.786   0.391  -0.964  1.00  0.00    +0.010 A 
ATOM     34  C   UNL     1       3.303   2.247   0.501  1.00  0.00    +0.010 A 
ATOM     35  C   UNL     1       3.743   1.247  -2.068  1.00  0.00    +0.007 A 
ATOM     36  C   UNL     1       3.249   3.092  -0.608  1.00  0.00    +0.007 A 
ATOM     37  C   UNL     1       3.438   2.607  -1.916  1.00  0.00    -0.017 A 
BRANCH  37  38
ATOM     38  C   UNL     1       3.260   3.557  -3.100  1.00  0.00    +0.084 C 
ATOM     39  C   UNL     1       4.209   4.761  -3.010  1.00  0.00    +0.047 C 
ATOM     40  C   UNL     1       3.399   2.912  -4.486  1.00  0.00    +0.047 C 
BRANCH  38  41
ATOM     41  O   UNL     1       1.903   4.013  -2.994  1.00  0.00    -0.386 OA
ATOM     42  H   UNL     1       1.797   4.748  -3.626  1.00  0.00    +0.211 HD
ENDBRANCH  38  41
ENDBRANCH  37  38
ENDBRANCH  31  32
ENDBRANCH  29  31
BRANCH  29  43
ATOM     43  C   UNL     1       1.738  -1.929   2.361  1.00  0.00    +0.233 C 
BRANCH  43  44
ATOM     44  C   UNL     1       3.026  -2.658   2.820  1.00  0.00    +0.104 C 
BRANCH  44  45
ATOM     45  C   UNL     1       2.749  -3.772   3.798  1.00  0.00    -0.042 A 
ATOM     46  C   UNL     1       2.264  -3.491   5.084  1.00  0.00    +0.004 A 
ATOM     47  C   UNL     1       2.968  -5.107   3.429  1.00  0.00    +0.004 A 
ATOM     48  C   UNL     1       1.982  -4.529   5.973  1.00  0.00    +0.000 A 
ATOM     49  C   UNL     1       2.684  -6.141   4.322  1.00  0.00    +0.000 A 
ATOM     50  C   UNL     1       2.187  -5.852   5.590  1.00  0.00    +0.000 A 
ENDBRANCH  44  45
ENDBRANCH  43  44
BRANCH  43  51
ATOM     51  C   UNL     1       0.766  -2.904   1.623  1.00  0.00    +0.208 CG0
ATOM     52  G   UNL     1      -0.622  -2.307   1.278  1.00  0.00    +0.000 G0
BRANCH  51  53
ATOM     53  O   UNL     1       1.414  -3.274   0.397  1.00  0.00    -0.384 OA
ATOM     54  H   UNL     1       1.282  -4.243   0.271  1.00  0.00    +0.211 HD
ENDBRANCH  51  53
ENDBRANCH  43  51
ENDBRANCH  29  43
ENDBRANCH   1  29
TORSDOF 14
