REMARK SMILES COC(=O)c1nc(Sc2ccc(OC)cc2)n(COCCOC(C)=O)n1
REMARK SMILES IDX 18 1 17 2 5 3 6 4 26 5 7 6 3 7 4 8 2 9 1 10 8 11 9 12 10 13
REMARK SMILES IDX 16 14 11 15 15 16 12 17 13 18 14 19 19 20 20 21 21 22 22 23
REMARK SMILES IDX 23 24 25 25 24 26
REMARK H PARENT
ROOT
ATOM      1  C   UNL     1       1.935   1.250  -0.821  1.00  0.00    +0.308 C 
ENDROOT
BRANCH   1   2
ATOM      2  N   UNL     1       0.525   1.594  -0.755  1.00  0.00    -0.213 N 
ATOM      3  C   UNL     1      -1.198   2.770  -0.469  1.00  0.00    +0.260 A 
ATOM      4  N   UNL     1      -1.660   1.493  -0.744  1.00  0.00    -0.194 NA
ATOM      5  N   UNL     1       0.149   2.862  -0.456  1.00  0.00    -0.140 NA
ATOM      6  C   UNL     1      -0.565   0.791  -0.907  1.00  0.00    +0.194 A 
BRANCH   3   7
ATOM      7  C   UNL     1      -2.106   3.905  -0.208  1.00  0.00    +0.377 C 
ATOM      8  O   UNL     1      -3.332   3.815  -0.206  1.00  0.00    -0.242 OA
BRANCH   7   9
ATOM      9  O   UNL     1      -1.438   5.078   0.037  1.00  0.00    -0.463 OA
ATOM     10  C   UNL     1      -2.290   6.192   0.291  1.00  0.00    +0.282 C 
ENDBRANCH   7   9
ENDBRANCH   3   7
BRANCH   6  11
ATOM     11  S   UNL     1      -0.484  -0.895  -1.284  1.00  0.00    -0.050 SA
BRANCH  11  12
ATOM     12  C   UNL     1      -1.144  -1.535   0.244  1.00  0.00    +0.016 A 
ATOM     13  C   UNL     1      -2.492  -1.368   0.578  1.00  0.00    +0.019 A 
ATOM     14  C   UNL     1      -0.312  -2.245   1.113  1.00  0.00    +0.019 A 
ATOM     15  C   UNL     1      -3.000  -1.887   1.775  1.00  0.00    +0.047 A 
ATOM     16  C   UNL     1      -0.822  -2.764   2.306  1.00  0.00    +0.047 A 
ATOM     17  C   UNL     1      -2.166  -2.587   2.646  1.00  0.00    +0.118 A 
BRANCH  17  18
ATOM     18  O   UNL     1      -2.532  -3.142   3.841  1.00  0.00    -0.497 OA
ATOM     19  C   UNL     1      -3.888  -2.974   4.236  1.00  0.00    +0.278 C 
ENDBRANCH  17  18
ENDBRANCH  11  12
ENDBRANCH   6  11
ENDBRANCH   1   2
BRANCH   1  20
ATOM     20  O   UNL     1       2.271   0.958  -2.177  1.00  0.00    -0.356 OA
BRANCH  20  21
ATOM     21  C   UNL     1       3.672   1.024  -2.447  1.00  0.00    +0.204 C 
BRANCH  21  22
ATOM     22  C   UNL     1       4.461  -0.148  -1.863  1.00  0.00    +0.261 C 
BRANCH  22  23
ATOM     23  O   UNL     1       4.012  -1.377  -2.461  1.00  0.00    -0.463 OA
BRANCH  23  24
ATOM     24  C   UNL     1       3.228  -2.174  -1.687  1.00  0.00    +0.302 C 
ATOM     25  O   UNL     1       2.937  -1.966  -0.517  1.00  0.00    -0.253 OA
ATOM     26  C   UNL     1       2.767  -3.362  -2.474  1.00  0.00    +0.139 C 
ENDBRANCH  23  24
ENDBRANCH  22  23
ENDBRANCH  21  22
ENDBRANCH  20  21
ENDBRANCH   1  20
TORSDOF 11
