REMARK SMILES Nc1ncnc2c1ncn2CCCOCC(=O)[O-]
REMARK SMILES IDX 12 1 11 2 10 3 2 4 3 5 7 6 4 7 6 8 8 9 5 10 9 11 1 12 13 15
REMARK SMILES IDX 14 16 15 17 16 18 17 19 18 20
REMARK H PARENT 1 13 1 14
ROOT
ATOM      1  C   UNL     1       1.203  -0.163  -1.520  1.00  0.00    +0.050 C 
ENDROOT
BRANCH   1   2
ATOM      2  C   UNL     1       0.185  -1.208  -1.068  1.00  0.00    +0.127 C 
BRANCH   2   3
ATOM      3  N   UNL     1      -0.768  -0.718  -0.097  1.00  0.00    -0.315 N 
ATOM      4  C   UNL     1      -3.771   0.788   0.875  1.00  0.00    +0.155 A 
ATOM      5  N   UNL     1      -4.317   1.159  -0.306  1.00  0.00    -0.217 NA
ATOM      6  C   UNL     1      -2.527   0.134   0.868  1.00  0.00    +0.150 A 
ATOM      7  C   UNL     1      -3.632   0.880  -1.438  1.00  0.00    +0.226 A 
ATOM      8  C   UNL     1      -1.947  -0.083  -0.372  1.00  0.00    +0.165 A 
ATOM      9  N   UNL     1      -1.731  -0.363   1.881  1.00  0.00    -0.231 NA
ATOM     10  N   UNL     1      -2.444   0.259  -1.573  1.00  0.00    -0.217 NA
ATOM     11  C   UNL     1      -0.678  -0.861   1.263  1.00  0.00    +0.202 A 
BRANCH   4  12
ATOM     12  N   UNL     1      -4.461   1.072   2.033  1.00  0.00    -0.382 N 
ATOM     13  H   UNL     1      -4.037   0.827   2.917  1.00  0.00    +0.158 HD
ATOM     14  H   UNL     1      -5.329   1.574   1.962  1.00  0.00    +0.158 HD
ENDBRANCH   4  12
ENDBRANCH   2   3
ENDBRANCH   1   2
BRANCH   1  15
ATOM     15  C   UNL     1       2.159   0.279  -0.416  1.00  0.00    +0.162 C 
BRANCH  15  16
ATOM     16  O   UNL     1       2.715  -0.884   0.195  1.00  0.00    -0.375 OA
BRANCH  16  17
ATOM     17  C   UNL     1       3.591  -0.550   1.299  1.00  0.00    +0.212 C 
BRANCH  17  18
ATOM     18  C   UNL     1       4.852   0.231   0.858  1.00  0.00    +0.067 C 
ATOM     19  O   UNL     1       4.750   1.492   0.934  1.00  0.00    -0.548 OA
ATOM     20  O   UNL     1       5.837  -0.473   0.494  1.00  0.00    -0.548 OA
ENDBRANCH  17  18
ENDBRANCH  16  17
ENDBRANCH  15  16
ENDBRANCH   1  15
TORSDOF 7
