REMARK SMILES CC(=O)OCCS(=O)(=O)c1ccc(S(N)(=O)=O)s1
REMARK SMILES IDX 7 1 8 2 9 3 6 4 5 5 4 6 2 7 3 8 1 9 10 10 11 11 18 12 12 13
REMARK SMILES IDX 13 14 14 15 16 16 17 17 15 18
REMARK H PARENT 15 19 15 20
ROOT
ATOM      1  S   UNL     1       0.411  -1.856  -0.620  1.00  0.00    +0.191 S 
ATOM      2  O   UNL     1       0.747  -2.482  -1.884  1.00  0.00    -0.223 OA
ATOM      3  O   UNL     1       0.270  -2.624   0.599  1.00  0.00    -0.223 OA
ENDROOT
BRANCH   1   4
ATOM      4  C   UNL     1       1.511  -0.490  -0.355  1.00  0.00    +0.184 C 
BRANCH   4   5
ATOM      5  C   UNL     1       2.923  -1.000  -0.140  1.00  0.00    +0.249 C 
BRANCH   5   6
ATOM      6  O   UNL     1       3.858   0.094  -0.089  1.00  0.00    -0.465 OA
BRANCH   6   7
ATOM      7  C   UNL     1       3.933   0.750   1.102  1.00  0.00    +0.302 C 
ATOM      8  O   UNL     1       3.235   0.517   2.078  1.00  0.00    -0.253 OA
ATOM      9  C   UNL     1       4.982   1.817   1.039  1.00  0.00    +0.139 C 
ENDBRANCH   6   7
ENDBRANCH   5   6
ENDBRANCH   4   5
ENDBRANCH   1   4
BRANCH   1  10
ATOM     10  C   UNL     1      -1.176  -1.103  -0.910  1.00  0.00    +0.121 A 
ATOM     11  C   UNL     1      -2.004  -1.099  -2.017  1.00  0.00    +0.033 A 
ATOM     12  S   UNL     1      -1.857  -0.218   0.386  1.00  0.00    -0.111 S 
ATOM     13  C   UNL     1      -3.197  -0.354  -1.795  1.00  0.00    +0.035 A 
ATOM     14  C   UNL     1      -3.248   0.185  -0.524  1.00  0.00    +0.135 A 
BRANCH  14  15
ATOM     15  S   UNL     1      -4.459   1.184   0.297  1.00  0.00    +0.247 S 
ATOM     16  O   UNL     1      -5.638   1.131  -0.534  1.00  0.00    -0.206 OA
ATOM     17  O   UNL     1      -3.801   2.423   0.638  1.00  0.00    -0.206 OA
BRANCH  15  18
ATOM     18  N   UNL     1      -4.872   0.442   1.744  1.00  0.00    -0.224 NA
ATOM     19  H   UNL     1      -5.875   0.250   1.752  1.00  0.00    +0.137 HD
ATOM     20  H   UNL     1      -4.582   1.033   2.524  1.00  0.00    +0.137 HD
ENDBRANCH  15  18
ENDBRANCH  14  15
ENDBRANCH   1  10
TORSDOF 7
