REMARK SMILES CC1=C[C@H]2O[C@@H]3C[C@H]4OC(=O)/C=C\C=C\[C@H]([C@@H](C)O)OC[C@H](O)[C@@H](C)CC(=O)OC[C@@]2(C[C@H]1O)[C@]4(C)[C@]31CO1
REMARK SMILES IDX 1 1 2 2 3 3 4 4 5 5 6 6 7 7 8 8 31 9 32 10 33 11 35 12 36 13
REMARK SMILES IDX 37 14 38 15 39 16 34 17 30 19 29 20 27 21 28 22 26 23 24 24
REMARK SMILES IDX 25 25 22 26 23 28 9 30 10 31 11 32 12 33 13 34 14 35 15 36
REMARK SMILES IDX 16 37 17 38 18 39 19 40 20 42 21 43
REMARK H PARENT 34 18 23 29 19 41
REMARK Flexibility Score:   77.900
ROOT
ATOM      1  C   UNL     1      -4.667   3.423   2.761  1.00  0.00    +0.042 C 
ATOM      2  C   UNL     1      -4.091   2.195   2.114  1.00  0.00    -0.046 C 
ATOM      3  C   UNL     1      -2.816   1.830   2.346  1.00  0.00    +0.007 C 
ATOM      4  C   UNL     1      -2.117   0.665   1.698  1.00  0.00    +0.152 C 
ATOM      5  O   UNL     1      -2.020  -0.322   2.743  1.00  0.00    -0.367 OA
ATOM      6  C   UNL     1      -1.555  -1.616   2.343  1.00  0.00    +0.158 C 
ATOM      7  C   UNL     1      -0.238  -1.525   1.572  1.00  0.00    +0.081 C 
ATOM      8  C   UNL     1      -0.665  -1.366   0.090  1.00  0.00    +0.189 C 
ATOM      9  C   UNL     1      -2.833   0.126   0.415  1.00  0.00    +0.049 C 
ATOM     10  C   UNL     1      -4.365   0.071   0.742  1.00  0.00    +0.050 C 
ATOM     11  C   UNL     1      -4.972   1.421   1.166  1.00  0.00    +0.140 C 
ATOM     12  C   UNL     1      -2.251  -1.336   0.083  1.00  0.00    +0.050 C 
ATOM     13  C   UNL     1      -2.842  -1.940  -1.196  1.00  0.00    +0.019 C 
ATOM     14  C   UNL     1      -2.501  -2.163   1.331  1.00  0.00    +0.127 C 
ATOM     15  C   UNL     1      -3.687  -3.047   1.645  1.00  0.00    +0.200 C 
ATOM     16  O   UNL     1      -2.449  -3.591   1.169  1.00  0.00    -0.366 OA
ENDROOT
BRANCH  11  17
ATOM     17  O   UNL     1      -6.230   1.135   1.770  1.00  0.00    -0.389 OA
ATOM     18  H   UNL     1      -6.659   1.982   1.968  1.00  0.00    +0.211 HD
ENDBRANCH  11  17
BRANCH   9  19
ATOM     19  C   UNL     1      -2.677   1.121  -0.778  1.00  0.00    +0.243 C 
BRANCH  19  20
ATOM     20  O   UNL     1      -1.354   1.208  -1.316  1.00  0.00    -0.465 OA
BRANCH  20  21
ATOM     21  C   UNL     1      -0.683   2.380  -1.127  1.00  0.00    +0.306 C 
ATOM     22  O   UNL     1      -1.076   3.311  -0.437  1.00  0.00    -0.252 OA
BRANCH  21  23
ATOM     23  C   UNL     1       0.562   2.416  -1.986  1.00  0.00    +0.128 C 
BRANCH  23  24
ATOM     24  C   UNL     1       1.777   3.017  -1.258  1.00  0.00    +0.028 C 
ATOM     25  C   UNL     1       2.723   3.678  -2.264  1.00  0.00    +0.011 C 
BRANCH  24  26
ATOM     26  C   UNL     1       2.518   2.003  -0.363  1.00  0.00    +0.143 CG0
ATOM     27  G   UNL     1       3.270   0.885  -1.105  1.00  0.00    +0.000 G0
BRANCH  26  28
ATOM     28  O   UNL     1       1.582   1.401   0.539  1.00  0.00    -0.390 OA
ATOM     29  H   UNL     1       2.094   0.711   1.005  1.00  0.00    +0.211 HD
ENDBRANCH  26  28
ENDBRANCH  24  26
ENDBRANCH  23  24
ENDBRANCH  21  23
ENDBRANCH  20  21
ENDBRANCH  19  20
ENDBRANCH   9  19
BRANCH   8  30
ATOM     30  O   UNL     1      -0.152  -2.527  -0.599  1.00  0.00    -0.458 OA
BRANCH  30  31
ATOM     31  C   UNL     1       0.453  -2.315  -1.789  1.00  0.00    +0.331 C 
ATOM     32  O   UNL     1       0.527  -1.270  -2.412  1.00  0.00    -0.247 OA
BRANCH  31  33
ATOM     33  C   UNL     1       1.054  -3.590  -2.216  1.00  0.00    +0.093 C 
ATOM     34  C   UNL     1       2.374  -3.739  -2.401  1.00  0.00    +0.007 C 
BRANCH  34  35
ATOM     35  C   UNL     1       3.385  -2.732  -2.166  1.00  0.00    -0.001 C 
ATOM     36  C   UNL     1       3.579  -2.150  -0.971  1.00  0.00    +0.007 C 
BRANCH  36  37
ATOM     37  C   UNL     1       4.593  -1.069  -0.705  1.00  0.00    +0.169 C 
BRANCH  37  38
ATOM     38  C   UNL     1       5.664  -1.549   0.307  1.00  0.00    +0.144 C 
ATOM     39  C   UNL     1       6.776  -0.520   0.478  1.00  0.00    +0.041 C 
BRANCH  38  40
ATOM     40  O   UNL     1       5.076  -1.763   1.598  1.00  0.00    -0.390 OA
ATOM     41  H   UNL     1       4.496  -0.992   1.748  1.00  0.00    +0.211 HD
ENDBRANCH  38  40
ENDBRANCH  37  38
BRANCH  37  42
ATOM     42  O   UNL     1       3.904   0.052  -0.116  1.00  0.00    -0.369 OA
BRANCH  42  43
ATOM     43  C   UNL     1       3.270   0.885  -1.105  1.00  0.00    +0.193 CG0
ATOM     44  G   UNL     1       2.518   2.003  -0.363  1.00  0.00    +0.000 G0
ENDBRANCH  42  43
ENDBRANCH  37  42
ENDBRANCH  36  37
ENDBRANCH  34  35
ENDBRANCH  31  33
ENDBRANCH  30  31
ENDBRANCH   8  30
TORSDOF 4
