REMARK SMILES C=C1[C@@H]2C[C@@H](O)[C@@H]3[C@](C2)(C(=O)O[C@H]2C[C@H](O)C(C)(C)[C@H]4[C@H](O)OC(=O)[C@@]243)[C@@H]1O
REMARK SMILES IDX 1 1 2 2 3 3 4 4 5 5 7 6 8 7 9 8 10 9 11 10 12 11 13 12 14 13
REMARK SMILES IDX 15 14 17 15 18 16 19 17 20 18 21 19 23 20 24 21 25 22 26 23
REMARK SMILES IDX 27 24 28 25 6 27 22 29 16 31
REMARK H PARENT 28 26 6 28 22 30 16 32
ROOT
ATOM      1  C   UNL     1       4.800  -1.712   0.163  1.00  0.00    +0.011 C 
ATOM      2  C   UNL     1       3.890  -0.769   0.443  1.00  0.00    -0.045 C 
ATOM      3  C   UNL     1       3.249  -0.553   1.804  1.00  0.00    +0.021 C 
ATOM      4  C   UNL     1       2.112  -1.559   2.054  1.00  0.00    +0.040 C 
ATOM      5  C   UNL     1       0.765  -1.127   1.441  1.00  0.00    +0.120 C 
ATOM      6  C   UNL     1       0.919  -0.332   0.118  1.00  0.00    +0.060 C 
ATOM      7  C   UNL     1       2.076   0.754   0.214  1.00  0.00    +0.105 C 
ATOM      8  C   UNL     1       2.669   0.847   1.638  1.00  0.00    +0.030 C 
ATOM      9  C   UNL     1       1.770   2.168  -0.246  1.00  0.00    +0.315 C 
ATOM     10  O   UNL     1       2.652   2.968  -0.545  1.00  0.00    -0.251 OA
ATOM     11  O   UNL     1       0.479   2.558  -0.266  1.00  0.00    -0.461 OA
ATOM     12  C   UNL     1      -0.568   1.664   0.135  1.00  0.00    +0.197 C 
ATOM     13  C   UNL     1      -1.889   2.361  -0.168  1.00  0.00    +0.079 C 
ATOM     14  C   UNL     1      -3.071   1.478   0.208  1.00  0.00    +0.124 C 
ATOM     15  C   UNL     1      -3.063   0.156  -0.596  1.00  0.00    +0.001 C 
ATOM     16  C   UNL     1      -4.203  -0.758  -0.075  1.00  0.00    +0.014 C 
ATOM     17  C   UNL     1      -3.413   0.488  -2.070  1.00  0.00    +0.014 C 
ATOM     18  C   UNL     1      -1.687  -0.608  -0.386  1.00  0.00    +0.088 C 
ATOM     19  C   UNL     1      -1.434  -1.625  -1.494  1.00  0.00    +0.312 C 
ATOM     20  O   UNL     1      -0.778  -0.889  -2.515  1.00  0.00    -0.435 OA
ATOM     21  C   UNL     1      -0.200   0.227  -1.977  1.00  0.00    +0.319 C 
ATOM     22  O   UNL     1       0.451   1.018  -2.642  1.00  0.00    -0.251 OA
ATOM     23  C   UNL     1      -0.407   0.270  -0.469  1.00  0.00    +0.121 C 
ATOM     24  C   UNL     1       3.339   0.248  -0.537  1.00  0.00    +0.158 C 
ENDROOT
BRANCH  24  25
ATOM     25  O   UNL     1       3.058  -0.359  -1.786  1.00  0.00    -0.388 OA
ATOM     26  H   UNL     1       2.736   0.345  -2.383  1.00  0.00    +0.211 HD
ENDBRANCH  24  25
BRANCH   5  27
ATOM     27  O   UNL     1       0.049  -0.342   2.389  1.00  0.00    -0.393 OA
ATOM     28  H   UNL     1      -0.200  -0.927   3.127  1.00  0.00    +0.210 HD
ENDBRANCH   5  27
BRANCH  19  29
ATOM     29  O   UNL     1      -0.597  -2.671  -1.042  1.00  0.00    -0.358 OA
ATOM     30  H   UNL     1      -0.542  -3.303  -1.781  1.00  0.00    +0.215 HD
ENDBRANCH  19  29
BRANCH  14  31
ATOM     31  O   UNL     1      -3.013   1.187   1.602  1.00  0.00    -0.392 OA
ATOM     32  H   UNL     1      -3.095   2.028   2.088  1.00  0.00    +0.210 HD
ENDBRANCH  14  31
TORSDOF 4
