REMARK SMILES C[NH+]1c2ccc(OC(=O)Nc3ccc(C(C)(C)C)cc3)cc2[C@]2(C)CC[NH+](CCc3ccccc3)[C@H]12
REMARK SMILES IDX 7 1 6 2 2 3 3 4 36 5 4 6 22 7 27 8 23 9 5 10 21 11 26 12
REMARK SMILES IDX 25 13 1 14 24 17 28 18 29 19 30 20 31 21 35 22 32 23 34 24
REMARK SMILES IDX 33 25 8 26 9 27 10 28 11 30 12 31 20 32 13 33 19 34 14 35
REMARK SMILES IDX 15 36 16 37 17 38 18 39
REMARK H PARENT 2 15 27 16 10 29
ROOT
ATOM      1  O   UNL     1      -1.208  -1.591   1.038  1.00  0.00    -0.410 OA
ENDROOT
BRANCH   1   2
ATOM      2  C   UNL     1       0.072  -1.059   0.855  1.00  0.00    +0.133 A 
ATOM      3  N   UNL     1       3.798   0.724   0.200  1.00  0.00    -0.255 N 
ATOM      4  C   UNL     1       2.525   0.107   0.559  1.00  0.00    +0.140 A 
ATOM      5  C   UNL     1       3.978   0.401  -1.243  1.00  0.00    +0.399 C 
ATOM      6  C   UNL     1       2.049  -0.074   1.846  1.00  0.00    +0.072 A 
ATOM      7  C   UNL     1       1.834  -0.334  -0.571  1.00  0.00    +0.035 A 
ATOM      8  N   UNL     1       4.926  -0.732  -1.568  1.00  0.00    -0.285 N 
ATOM      9  C   UNL     1       2.595  -0.028  -1.827  1.00  0.00    +0.110 C 
ATOM     10  C   UNL     1       0.795  -0.668   1.992  1.00  0.00    +0.053 A 
ATOM     11  C   UNL     1       0.593  -0.932  -0.437  1.00  0.00    +0.058 A 
ATOM     12  C   UNL     1       4.392  -1.207  -2.919  1.00  0.00    +0.268 C 
ATOM     13  C   UNL     1       2.892  -1.253  -2.702  1.00  0.00    +0.086 C 
ATOM     14  C   UNL     1       3.750   2.204   0.493  1.00  0.00    +0.343 C 
ATOM     15  H   UNL     1       4.532   0.344   0.802  1.00  0.00    +0.359 HD
ATOM     16  H   UNL     1       5.855  -0.331  -1.758  1.00  0.00    +0.353 HD
ATOM     17  C   UNL     1       1.929   1.097  -2.622  1.00  0.00    +0.030 C 
BRANCH   8  18
ATOM     18  C   UNL     1       5.125  -1.911  -0.611  1.00  0.00    +0.272 C 
BRANCH  18  19
ATOM     19  C   UNL     1       6.519  -1.875   0.037  1.00  0.00    +0.097 C 
BRANCH  19  20
ATOM     20  C   UNL     1       6.675  -0.730   1.002  1.00  0.00    -0.042 A 
ATOM     21  C   UNL     1       7.341   0.445   0.623  1.00  0.00    +0.004 A 
ATOM     22  C   UNL     1       6.132  -0.822   2.294  1.00  0.00    +0.004 A 
ATOM     23  C   UNL     1       7.426   1.520   1.508  1.00  0.00    +0.000 A 
ATOM     24  C   UNL     1       6.218   0.257   3.173  1.00  0.00    +0.000 A 
ATOM     25  C   UNL     1       6.856   1.430   2.777  1.00  0.00    +0.000 A 
ENDBRANCH  19  20
ENDBRANCH  18  19
ENDBRANCH   8  18
ENDBRANCH   1   2
BRANCH   1  26
ATOM     26  C   UNL     1      -2.215  -0.679   0.712  1.00  0.00    +0.417 C 
ATOM     27  O   UNL     1      -1.992   0.448   0.288  1.00  0.00    -0.224 OA
ATOM     28  N   UNL     1      -3.428  -1.269   0.940  1.00  0.00    -0.291 N 
ATOM     29  H   UNL     1      -3.384  -2.214   1.297  1.00  0.00    +0.173 HD
BRANCH  28  30
ATOM     30  C   UNL     1      -4.710  -0.724   0.746  1.00  0.00    +0.044 A 
ATOM     31  C   UNL     1      -4.947   0.564   0.272  1.00  0.00    +0.026 A 
ATOM     32  C   UNL     1      -5.805  -1.534   1.051  1.00  0.00    +0.026 A 
ATOM     33  C   UNL     1      -6.259   1.035   0.105  1.00  0.00    +0.006 A 
ATOM     34  C   UNL     1      -7.112  -1.063   0.884  1.00  0.00    +0.006 A 
ATOM     35  C   UNL     1      -7.371   0.234   0.406  1.00  0.00    -0.042 A 
BRANCH  35  36
ATOM     36  C   UNL     1      -8.821   0.722   0.235  1.00  0.00    -0.013 C 
ATOM     37  C   UNL     1      -9.563  -0.194  -0.763  1.00  0.00    +0.016 C 
ATOM     38  C   UNL     1      -8.935   2.167  -0.301  1.00  0.00    +0.016 C 
ATOM     39  C   UNL     1      -9.546   0.681   1.597  1.00  0.00    +0.016 C 
ENDBRANCH  35  36
ENDBRANCH  28  30
ENDBRANCH   1  26
TORSDOF 7
