REMARK SMILES c1ccc(C(CC[NH+]2CC[NH+](C(c3ccccc3)c3ccccc3)CC2)c2ccccc2)cc1
REMARK SMILES IDX 7 1 6 2 5 3 4 4 1 5 2 6 34 7 3 8 33 9 27 10 28 11 32 12
REMARK SMILES IDX 29 13 31 14 30 15 8 16 9 17 26 18 10 19 25 20 11 21 12 24
REMARK SMILES IDX 13 25 14 26 18 27 15 28 17 29 16 30 19 31 20 32 24 33 21 34
REMARK SMILES IDX 23 35 22 36
REMARK H PARENT 8 22 11 23
ROOT
ATOM      1  C   UNL     1       1.807   0.402  -0.516  1.00  0.00    +0.263 C 
ENDROOT
BRANCH   1   2
ATOM      2  C   UNL     1       2.716  -0.767  -0.133  1.00  0.00    +0.074 C 
BRANCH   2   3
ATOM      3  C   UNL     1       4.152  -0.580  -0.689  1.00  0.00    +0.055 C 
BRANCH   3   4
ATOM      4  C   UNL     1       5.024  -1.823  -0.568  1.00  0.00    -0.040 A 
ATOM      5  C   UNL     1       6.698  -4.083  -0.430  1.00  0.00    +0.000 A 
ATOM      6  C   UNL     1       5.749  -3.856   0.561  1.00  0.00    +0.000 A 
ATOM      7  C   UNL     1       6.827  -3.185  -1.485  1.00  0.00    +0.000 A 
ATOM      8  C   UNL     1       4.919  -2.733   0.497  1.00  0.00    +0.004 A 
ATOM      9  C   UNL     1       6.000  -2.062  -1.551  1.00  0.00    +0.004 A 
ENDBRANCH   3   4
BRANCH   3  10
ATOM     10  C   UNL     1       4.811   0.660  -0.102  1.00  0.00    -0.040 A 
ATOM     11  C   UNL     1       5.079   0.772   1.272  1.00  0.00    +0.004 A 
ATOM     12  C   UNL     1       5.154   1.732  -0.943  1.00  0.00    +0.004 A 
ATOM     13  C   UNL     1       5.655   1.933   1.792  1.00  0.00    +0.000 A 
ATOM     14  C   UNL     1       5.728   2.892  -0.419  1.00  0.00    +0.000 A 
ATOM     15  C   UNL     1       5.974   2.993   0.948  1.00  0.00    +0.000 A 
ENDBRANCH   3  10
ENDBRANCH   2   3
ENDBRANCH   1   2
BRANCH   1  16
ATOM     16  N   UNL     1       0.413   0.238   0.114  1.00  0.00    -0.326 N 
ATOM     17  C   UNL     1      -0.328   1.577   0.105  1.00  0.00    +0.324 C 
ATOM     18  C   UNL     1      -0.410  -0.866  -0.547  1.00  0.00    +0.324 C 
ATOM     19  C   UNL     1      -1.734   1.458   0.739  1.00  0.00    +0.325 C 
ATOM     20  C   UNL     1      -1.820  -0.984   0.082  1.00  0.00    +0.325 C 
ATOM     21  N   UNL     1      -2.562   0.355   0.072  1.00  0.00    -0.316 N 
ATOM     22  H   UNL     1       0.592  -0.018   1.098  1.00  0.00    +0.348 HD
ATOM     23  H   UNL     1      -2.756   0.623  -0.900  1.00  0.00    +0.349 HD
BRANCH  21  24
ATOM     24  C   UNL     1      -3.977   0.233   0.713  1.00  0.00    +0.246 C 
BRANCH  24  25
ATOM     25  C   UNL     1      -4.807  -0.890   0.106  1.00  0.00    +0.014 A 
ATOM     26  C   UNL     1      -5.335  -1.885   0.949  1.00  0.00    +0.010 A 
ATOM     27  C   UNL     1      -5.065  -0.979  -1.274  1.00  0.00    +0.010 A 
ATOM     28  C   UNL     1      -6.078  -2.944   0.425  1.00  0.00    +0.001 A 
ATOM     29  C   UNL     1      -5.810  -2.041  -1.792  1.00  0.00    +0.001 A 
ATOM     30  C   UNL     1      -6.311  -3.023  -0.944  1.00  0.00    +0.000 A 
ENDBRANCH  24  25
BRANCH  24  31
ATOM     31  C   UNL     1      -4.721   1.560   0.762  1.00  0.00    +0.014 A 
ATOM     32  C   UNL     1      -4.948   2.344  -0.384  1.00  0.00    +0.010 A 
ATOM     33  C   UNL     1      -5.200   2.033   1.998  1.00  0.00    +0.010 A 
ATOM     34  C   UNL     1      -5.614   3.568  -0.290  1.00  0.00    +0.001 A 
ATOM     35  C   UNL     1      -5.863   3.258   2.087  1.00  0.00    +0.001 A 
ATOM     36  C   UNL     1      -6.066   4.025   0.945  1.00  0.00    +0.000 A 
ENDBRANCH  24  31
ENDBRANCH  21  24
ENDBRANCH   1  16
TORSDOF 8
