REMARK SMILES Cc1cnc(Nc2ccc(N3CCOCC3)cc2)nc1-c1ccc(C(=O)NCC#N)cc1
REMARK SMILES IDX 1 1 2 2 3 3 4 4 5 5 19 6 20 7 21 8 22 9 32 10 23 11 31 12
REMARK SMILES IDX 24 13 25 14 26 15 27 16 28 18 29 19 30 20 6 21 7 23 8 24
REMARK SMILES IDX 18 25 9 26 17 27 10 28 11 29 12 30 16 31 13 32 15 33 14 34
REMARK H PARENT 27 17 6 22
ROOT
ATOM      1  C   UNL     1       3.074  -1.610  -3.499  1.00  0.00    +0.048 C 
ATOM      2  C   UNL     1       2.050  -1.158  -2.510  1.00  0.00    -0.006 A 
ATOM      3  C   UNL     1       0.705  -1.285  -2.778  1.00  0.00    +0.120 A 
ATOM      4  N   UNL     1      -0.272  -0.906  -1.935  1.00  0.00    -0.221 NA
ATOM      5  C   UNL     1       0.096  -0.371  -0.766  1.00  0.00    +0.227 A 
ATOM      6  N   UNL     1       1.379  -0.197  -0.415  1.00  0.00    -0.212 NA
ATOM      7  C   UNL     1       2.342  -0.572  -1.289  1.00  0.00    +0.079 A 
ENDROOT
BRANCH   7   8
ATOM      8  C   UNL     1       3.709  -0.315  -0.809  1.00  0.00    +0.001 A 
ATOM      9  C   UNL     1       4.169  -0.914   0.377  1.00  0.00    +0.011 A 
ATOM     10  C   UNL     1       4.583   0.540  -1.501  1.00  0.00    +0.011 A 
ATOM     11  C   UNL     1       5.465  -0.680   0.853  1.00  0.00    +0.014 A 
ATOM     12  C   UNL     1       5.880   0.775  -1.031  1.00  0.00    +0.014 A 
ATOM     13  C   UNL     1       6.321   0.174   0.152  1.00  0.00    +0.039 A 
BRANCH  13  14
ATOM     14  C   UNL     1       7.709   0.455   0.610  1.00  0.00    +0.252 C 
ATOM     15  O   UNL     1       8.584   0.732  -0.202  1.00  0.00    -0.269 OA
ATOM     16  N   UNL     1       7.932   0.414   1.967  1.00  0.00    -0.339 N 
ATOM     17  H   UNL     1       7.157   0.309   2.607  1.00  0.00    +0.164 HD
BRANCH  16  18
ATOM     18  C   UNL     1       9.239   0.721   2.519  1.00  0.00    +0.237 C 
ATOM     19  C   UNL     1       9.324   2.116   2.985  1.00  0.00    +0.084 C 
ATOM     20  N   UNL     1       9.377   3.204   3.388  1.00  0.00    -0.196 NA
ENDBRANCH  16  18
ENDBRANCH  13  14
ENDBRANCH   7   8
BRANCH   5  21
ATOM     21  N   UNL     1      -0.830   0.053   0.181  1.00  0.00    -0.324 N 
ATOM     22  H   UNL     1      -0.334   0.442   0.969  1.00  0.00    +0.170 HD
BRANCH  21  23
ATOM     23  C   UNL     1      -2.226   0.055   0.246  1.00  0.00    +0.041 A 
ATOM     24  C   UNL     1      -2.847   0.602   1.375  1.00  0.00    +0.028 A 
ATOM     25  C   UNL     1      -3.057  -0.458  -0.746  1.00  0.00    +0.028 A 
ATOM     26  C   UNL     1      -4.245   0.636   1.502  1.00  0.00    +0.028 A 
ATOM     27  C   UNL     1      -4.456  -0.421  -0.617  1.00  0.00    +0.028 A 
ATOM     28  C   UNL     1      -5.087   0.135   0.503  1.00  0.00    +0.037 A 
BRANCH  28  29
ATOM     29  N   UNL     1      -6.473   0.154   0.607  1.00  0.00    -0.367 N 
ATOM     30  C   UNL     1      -7.248   0.680  -0.535  1.00  0.00    +0.145 C 
ATOM     31  C   UNL     1      -7.123   0.347   1.914  1.00  0.00    +0.145 C 
ATOM     32  C   UNL     1      -8.706   0.202  -0.462  1.00  0.00    +0.181 C 
ATOM     33  C   UNL     1      -8.585  -0.122   1.861  1.00  0.00    +0.181 C 
ATOM     34  O   UNL     1      -9.311   0.520   0.801  1.00  0.00    -0.378 OA
ENDBRANCH  28  29
ENDBRANCH  21  23
ENDBRANCH   5  21
TORSDOF 6
