REMARK SMILES O=C(Nc1cc2cc[n-]c(=O)c2cc1Cl)c1ccccc1
REMARK SMILES IDX 4 1 5 2 6 3 7 4 8 5 9 6 10 7 11 8 12 9 13 10 14 11 15 12
REMARK SMILES IDX 3 13 1 14 2 15 16 17 17 18 21 19 18 20 20 21 19 22
REMARK H PARENT 3 16
ROOT
ATOM      1  C   UNL     1       0.782  -0.409  -0.264  1.00  0.00    +0.060 A 
ATOM      2  C   UNL     1       1.661   0.645  -0.002  1.00  0.00    +0.036 A 
ATOM      3  C   UNL     1       3.042   0.470  -0.176  1.00  0.00    -0.016 A 
ATOM      4  C   UNL     1       3.989   1.544   0.087  1.00  0.00    -0.015 C 
ATOM      5  C   UNL     1       5.283   1.244  -0.115  1.00  0.00    -0.136 C 
ATOM      6  N   UNL     1       5.853   0.085  -0.531  1.00  0.00    -0.629 NA
ATOM      7  C   UNL     1       5.029  -0.943  -0.791  1.00  0.00    +0.086 C 
ATOM      8  O   UNL     1       5.407  -2.051  -1.174  1.00  0.00    -0.315 OA
ATOM      9  C   UNL     1       3.550  -0.762  -0.611  1.00  0.00    +0.008 A 
ATOM     10  C   UNL     1       2.682  -1.823  -0.874  1.00  0.00    +0.033 A 
ATOM     11  C   UNL     1       1.311  -1.643  -0.700  1.00  0.00    +0.065 A 
ATOM     12 Cl   UNL     1       0.263  -2.987  -1.029  1.00  0.00    -0.082 Cl
ENDROOT
BRANCH   1  13
ATOM     13  N   UNL     1      -0.623  -0.311  -0.103  1.00  0.00    -0.321 N 
ATOM     14  O   UNL     1      -0.960   1.925   0.474  1.00  0.00    -0.269 OA
ATOM     15  C   UNL     1      -1.367   0.787   0.277  1.00  0.00    +0.255 C 
ATOM     16  H   UNL     1      -1.119  -1.162  -0.340  1.00  0.00    +0.170 HD
BRANCH  15  17
ATOM     17  C   UNL     1      -2.829   0.528   0.414  1.00  0.00    +0.040 A 
ATOM     18  C   UNL     1      -3.323  -0.689   0.904  1.00  0.00    +0.014 A 
ATOM     19  C   UNL     1      -3.723   1.549   0.068  1.00  0.00    +0.014 A 
ATOM     20  C   UNL     1      -4.701  -0.888   1.018  1.00  0.00    +0.001 A 
ATOM     21  C   UNL     1      -5.099   1.346   0.182  1.00  0.00    +0.001 A 
ATOM     22  C   UNL     1      -5.587   0.126   0.653  1.00  0.00    +0.000 A 
ENDBRANCH  15  17
ENDBRANCH   1  13
TORSDOF 2
