REMARK SMILES C[NH+](C)S(=O)(=O)c1ccc(-c2cnn3c(-c4cccc(NC(=O)c5cccc(C(F)(F)F)c5)c4)ccnc23)cc1
REMARK SMILES IDX 11 1 12 2 13 3 14 4 15 5 35 6 36 7 37 8 38 9 10 10 7 11 8 12
REMARK SMILES IDX 40 13 9 14 39 15 4 16 5 17 6 18 2 19 1 20 3 21 16 23 17 24
REMARK SMILES IDX 34 25 18 26 20 27 19 28 21 29 22 30 23 31 24 33 25 34 33 35
REMARK SMILES IDX 26 36 28 37 27 38 29 39 30 40 31 41 32 42
REMARK H PARENT 2 22 21 32
ROOT
ATOM      1  C   UNL     1       2.616  -0.376  -1.276  1.00  0.00    +0.047 A 
ATOM      2  C   UNL     1       1.970  -0.667  -2.492  1.00  0.00    +0.146 A 
ATOM      3  N   UNL     1       0.704  -1.043  -2.336  1.00  0.00    -0.174 NA
ATOM      4  N   UNL     1       0.485  -0.992  -0.992  1.00  0.00    -0.214 N 
ATOM      5  C   UNL     1      -0.702  -1.271  -0.286  1.00  0.00    +0.076 C 
ATOM      6  C   UNL     1      -0.695  -1.182   1.058  1.00  0.00    +0.049 C 
ATOM      7  C   UNL     1       0.590  -0.784   1.683  1.00  0.00    +0.116 C 
ATOM      8  N   UNL     1       1.698  -0.515   1.062  1.00  0.00    -0.236 NA
ATOM      9  C   UNL     1       1.655  -0.606  -0.307  1.00  0.00    +0.163 A 
ENDROOT
BRANCH   1  10
ATOM     10  C   UNL     1       3.980   0.046  -1.018  1.00  0.00    -0.013 A 
ATOM     11  C   UNL     1       6.617   0.828  -0.505  1.00  0.00    +0.121 A 
ATOM     12  C   UNL     1       6.360  -0.139  -1.483  1.00  0.00    +0.027 A 
ATOM     13  C   UNL     1       5.570   1.438   0.189  1.00  0.00    +0.027 A 
ATOM     14  C   UNL     1       5.041  -0.526  -1.735  1.00  0.00    +0.010 A 
ATOM     15  C   UNL     1       4.257   1.038  -0.066  1.00  0.00    +0.010 A 
BRANCH  11  16
ATOM     16  S   UNL     1       8.289   1.283  -0.147  1.00  0.00    +0.325 S 
ATOM     17  O   UNL     1       8.304   2.489   0.642  1.00  0.00    -0.169 OA
ATOM     18  O   UNL     1       9.067   1.119  -1.351  1.00  0.00    -0.169 OA
BRANCH  16  19
ATOM     19  N   UNL     1       8.993   0.123   0.866  1.00  0.00    -0.230 N 
ATOM     20  C   UNL     1      10.355   0.581   1.248  1.00  0.00    +0.350 C 
ATOM     21  C   UNL     1       8.127  -0.191   2.021  1.00  0.00    +0.350 C 
ATOM     22  H   UNL     1       9.087  -0.675   0.237  1.00  0.00    +0.366 HD
ENDBRANCH  16  19
ENDBRANCH  11  16
ENDBRANCH   1  10
BRANCH   5  23
ATOM     23  C   UNL     1      -1.955  -1.668  -0.965  1.00  0.00    +0.002 A 
ATOM     24  C   UNL     1      -1.972  -2.731  -1.876  1.00  0.00    +0.010 A 
ATOM     25  C   UNL     1      -3.154  -0.981  -0.702  1.00  0.00    +0.036 A 
ATOM     26  C   UNL     1      -3.160  -3.100  -2.507  1.00  0.00    +0.003 A 
ATOM     27  C   UNL     1      -4.353  -1.354  -1.318  1.00  0.00    +0.042 A 
ATOM     28  C   UNL     1      -4.343  -2.415  -2.229  1.00  0.00    +0.026 A 
BRANCH  27  29
ATOM     29  N   UNL     1      -5.587  -0.710  -1.085  1.00  0.00    -0.322 N 
ATOM     30  C   UNL     1      -5.852   0.275  -0.150  1.00  0.00    +0.255 C 
ATOM     31  O   UNL     1      -5.087   0.693   0.711  1.00  0.00    -0.269 OA
ATOM     32  H   UNL     1      -6.369  -1.052  -1.629  1.00  0.00    +0.170 HD
BRANCH  30  33
ATOM     33  C   UNL     1      -7.236   0.827  -0.190  1.00  0.00    +0.040 A 
ATOM     34  C   UNL     1      -7.927   1.003  -1.395  1.00  0.00    +0.014 A 
ATOM     35  C   UNL     1      -7.838   1.206   1.018  1.00  0.00    +0.027 A 
ATOM     36  C   UNL     1      -9.221   1.524  -1.387  1.00  0.00    +0.001 A 
ATOM     37  C   UNL     1      -9.138   1.740   1.034  1.00  0.00    +0.056 A 
ATOM     38  C   UNL     1      -9.826   1.882  -0.180  1.00  0.00    +0.013 A 
BRANCH  37  39
ATOM     39  C   UNL     1      -9.788   2.117   2.343  1.00  0.00    +0.416 C 
ATOM     40  F   UNL     1     -10.330   1.040   2.976  1.00  0.00    -0.166 F 
ATOM     41  F   UNL     1     -10.800   3.017   2.201  1.00  0.00    -0.166 F 
ATOM     42  F   UNL     1      -8.916   2.674   3.229  1.00  0.00    -0.166 F 
ENDBRANCH  37  39
ENDBRANCH  30  33
ENDBRANCH  27  29
ENDBRANCH   5  23
TORSDOF 7
