REMARK SMILES C/C=C(\C)C(=O)O[C@@H]1[C@@H]2OC[C@]3(C)[C@H](OC(C)=O)C[C@H](O)[C@@](C)([C@@H]23)[C@H]2C[C@H](O)O[C@H]3C[C@@H](C4=CCOC4=O)C(C)=C3[C@]12C
REMARK SMILES IDX 8 1 9 2 10 3 11 4 12 5 13 6 14 7 19 8 20 9 22 10 23 11 24 12
REMARK SMILES IDX 25 13 42 14 43 15 7 17 5 18 6 19 3 20 2 21 1 22 4 23 41 24
REMARK SMILES IDX 39 25 30 26 32 27 31 28 40 29 29 30 27 31 26 32 28 34 33 36
REMARK SMILES IDX 34 37 37 38 35 39 36 40 38 41 21 42 15 44 16 45 18 46 17 47
REMARK H PARENT 28 35 21 43
REMARK Flexibility Score:   23.900
ROOT
ATOM      1  C   UNL     1      -0.240   0.649  -1.575  1.00  0.00    +0.216 C 
ATOM      2  C   UNL     1      -1.447  -0.176  -2.048  1.00  0.00    +0.164 C 
ATOM      3  O   UNL     1      -2.629   0.605  -2.344  1.00  0.00    -0.373 OA
ATOM      4  C   UNL     1      -3.778  -0.040  -1.719  1.00  0.00    +0.171 C 
ATOM      5  C   UNL     1      -3.327  -1.464  -1.339  1.00  0.00    +0.034 C 
ATOM      6  C   UNL     1      -3.513  -2.357  -2.583  1.00  0.00    +0.018 C 
ATOM      7  C   UNL     1      -3.998  -2.126  -0.115  1.00  0.00    +0.187 C 
ATOM      8  C   UNL     1      -3.117  -3.297   0.413  1.00  0.00    +0.078 C 
ATOM      9  C   UNL     1      -1.626  -2.940   0.679  1.00  0.00    +0.124 C 
ATOM     10  C   UNL     1      -0.918  -2.198  -0.522  1.00  0.00    +0.004 C 
ATOM     11  C   UNL     1      -0.644  -3.248  -1.623  1.00  0.00    +0.015 C 
ATOM     12  C   UNL     1      -1.901  -1.108  -0.955  1.00  0.00    +0.043 C 
ATOM     13  C   UNL     1       0.403  -1.401  -0.074  1.00  0.00    +0.017 CG0
ATOM     14  C   UNL     1       0.946  -0.281  -1.096  1.00  0.00    +0.035 C 
ATOM     15  C   UNL     1       1.598  -0.964  -2.324  1.00  0.00    +0.020 C 
ATOM     16  G   UNL     1       1.499  -2.329   0.512  1.00  0.00    +0.000 G0
ENDROOT
BRANCH   1  17
ATOM     17  O   UNL     1      -0.677   1.452  -0.448  1.00  0.00    -0.455 OA
BRANCH  17  18
ATOM     18  C   UNL     1      -0.658   2.798  -0.589  1.00  0.00    +0.333 C 
ATOM     19  O   UNL     1      -0.250   3.413  -1.563  1.00  0.00    -0.247 OA
BRANCH  18  20
ATOM     20  C   UNL     1      -1.170   3.475   0.650  1.00  0.00    +0.030 C 
ATOM     21  C   UNL     1      -1.744   2.767   1.646  1.00  0.00    -0.020 C 
ATOM     22  C   UNL     1      -2.313   3.283   2.929  1.00  0.00    +0.036 C 
ATOM     23  C   UNL     1      -0.969   4.963   0.634  1.00  0.00    +0.052 C 
ENDBRANCH  18  20
ENDBRANCH  17  18
ENDBRANCH   1  17
BRANCH  14  24
ATOM     24  C   UNL     1       1.999   0.616  -0.395  1.00  0.00    -0.032 C 
ATOM     25  C   UNL     1       2.878   1.512  -0.898  1.00  0.00    -0.063 C 
ATOM     26  C   UNL     1       2.097   0.601   1.119  1.00  0.00    +0.149 C 
ATOM     27  C   UNL     1       3.723   2.156   0.187  1.00  0.00    +0.055 C 
ATOM     28  C   UNL     1       2.904   1.857   1.446  1.00  0.00    +0.050 C 
ATOM     29  C   UNL     1       3.076   1.995  -2.298  1.00  0.00    +0.040 C 
BRANCH  26  30
ATOM     30  O   UNL     1       2.750  -0.533   1.679  1.00  0.00    -0.345 OA
BRANCH  30  31
ATOM     31  C   UNL     1       2.841  -1.682   0.869  1.00  0.00    +0.247 C 
BRANCH  31  32
ATOM     32  C   UNL     1       1.499  -2.329   0.512  1.00  0.00    +0.067 CG0
ATOM     33  G   UNL     1       0.403  -1.401  -0.074  1.00  0.00    +0.000 G0
ENDBRANCH  31  32
BRANCH  31  34
ATOM     34  O   UNL     1       3.613  -2.632   1.594  1.00  0.00    -0.368 OA
ATOM     35  H   UNL     1       3.210  -2.632   2.479  1.00  0.00    +0.213 HD
ENDBRANCH  31  34
ENDBRANCH  30  31
ENDBRANCH  26  30
BRANCH  27  36
ATOM     36  C   UNL     1       5.120   1.633   0.272  1.00  0.00    +0.044 C 
ATOM     37  C   UNL     1       5.750   0.612  -0.310  1.00  0.00    +0.026 C 
ATOM     38  C   UNL     1       6.123   2.299   1.116  1.00  0.00    +0.334 C 
ATOM     39  C   UNL     1       7.152   0.531   0.130  1.00  0.00    +0.261 C 
ATOM     40  O   UNL     1       7.308   1.636   1.016  1.00  0.00    -0.458 OA
ATOM     41  O   UNL     1       5.927   3.293   1.791  1.00  0.00    -0.247 OA
ENDBRANCH  27  36
ENDBRANCH  14  24
BRANCH   9  42
ATOM     42  O   UNL     1      -1.569  -2.141   1.862  1.00  0.00    -0.392 OA
ATOM     43  H   UNL     1      -1.929  -2.672   2.594  1.00  0.00    +0.210 HD
ENDBRANCH   9  42
BRANCH   7  44
ATOM     44  O   UNL     1      -4.170  -1.136   0.922  1.00  0.00    -0.462 OA
BRANCH  44  45
ATOM     45  C   UNL     1      -5.089  -1.404   1.886  1.00  0.00    +0.302 C 
ATOM     46  O   UNL     1      -5.780  -2.410   1.949  1.00  0.00    -0.253 OA
ATOM     47  C   UNL     1      -5.130  -0.280   2.875  1.00  0.00    +0.139 C 
ENDBRANCH  44  45
ENDBRANCH   7  44
TORSDOF 8
