REMARK SMILES CC(C)(C)c1cc(NC(=O)Nc2ccc(NC(=O)c3ccncc3)cc2)no1
REMARK SMILES IDX 8 1 9 2 10 3 11 4 7 7 5 8 6 9 28 10 27 11 2 12 1 13 3 14
REMARK SMILES IDX 4 15 12 16 13 17 26 18 14 19 25 20 15 21 16 22 17 23 18 24
REMARK SMILES IDX 19 26 20 27 24 28 21 29 23 30 22 31
REMARK H PARENT 8 5 11 6 16 25
ROOT
ATOM      1  N   UNL     1      -2.520   1.894  -0.297  1.00  0.00    -0.289 N 
ATOM      2  C   UNL     1      -1.437   1.049  -0.169  1.00  0.00    +0.324 C 
ATOM      3  O   UNL     1      -1.525  -0.171  -0.095  1.00  0.00    -0.248 OA
ATOM      4  N   UNL     1      -0.252   1.768  -0.137  1.00  0.00    -0.308 N 
ATOM      5  H   UNL     1      -2.396   2.891  -0.356  1.00  0.00    +0.173 HD
ATOM      6  H   UNL     1      -0.334   2.771  -0.202  1.00  0.00    +0.171 HD
ENDROOT
BRANCH   1   7
ATOM      7  C   UNL     1      -3.838   1.500  -0.358  1.00  0.00    +0.177 A 
ATOM      8  C   UNL     1      -5.757   0.403  -0.412  1.00  0.00    +0.144 A 
ATOM      9  C   UNL     1      -4.399   0.206  -0.309  1.00  0.00    +0.096 A 
ATOM     10  O   UNL     1      -5.991   1.742  -0.517  1.00  0.00    -0.359 OA
ATOM     11  N   UNL     1      -4.793   2.427  -0.483  1.00  0.00    -0.062 NA
BRANCH   8  12
ATOM     12  C   UNL     1      -6.964  -0.494  -0.432  1.00  0.00    +0.023 C 
ATOM     13  C   UNL     1      -7.726  -0.309  -1.757  1.00  0.00    +0.019 C 
ATOM     14  C   UNL     1      -7.892  -0.142   0.744  1.00  0.00    +0.019 C 
ATOM     15  C   UNL     1      -6.554  -1.972  -0.307  1.00  0.00    +0.019 C 
ENDBRANCH   8  12
ENDBRANCH   1   7
BRANCH   4  16
ATOM     16  C   UNL     1       1.061   1.268  -0.022  1.00  0.00    +0.043 A 
ATOM     17  C   UNL     1       1.382  -0.084   0.075  1.00  0.00    +0.028 A 
ATOM     18  C   UNL     1       2.101   2.204  -0.004  1.00  0.00    +0.028 A 
ATOM     19  C   UNL     1       2.719  -0.492   0.186  1.00  0.00    +0.028 A 
ATOM     20  C   UNL     1       3.437   1.796   0.107  1.00  0.00    +0.028 A 
ATOM     21  C   UNL     1       3.758   0.444   0.200  1.00  0.00    +0.041 A 
BRANCH  21  22
ATOM     22  N   UNL     1       5.073  -0.052   0.321  1.00  0.00    -0.322 N 
ATOM     23  C   UNL     1       6.247   0.678   0.302  1.00  0.00    +0.255 C 
ATOM     24  O   UNL     1       6.366   1.879   0.091  1.00  0.00    -0.269 OA
ATOM     25  H   UNL     1       5.153  -1.058   0.384  1.00  0.00    +0.170 HD
BRANCH  23  26
ATOM     26  C   UNL     1       7.485  -0.117   0.524  1.00  0.00    +0.043 A 
ATOM     27  C   UNL     1       8.643   0.253  -0.160  1.00  0.00    +0.034 A 
ATOM     28  C   UNL     1       7.521  -1.188   1.418  1.00  0.00    +0.034 A 
ATOM     29  C   UNL     1       9.788  -0.490   0.056  1.00  0.00    +0.112 A 
ATOM     30  C   UNL     1       8.719  -1.864   1.565  1.00  0.00    +0.112 A 
ATOM     31  N   UNL     1       9.847  -1.545   0.896  1.00  0.00    -0.265 NA
ENDBRANCH  23  26
ENDBRANCH  21  22
ENDBRANCH   4  16
TORSDOF 5
