REMARK SMILES CC(C)OC(=O)Nc1ccccc1
REMARK SMILES IDX 4 1 2 2 1 3 3 4 5 5 6 6 7 7 8 9 9 10 13 11 10 12 12 13 11 14
REMARK H PARENT 7 8
ROOT
ATOM      1  O   UNL     1       1.593  -0.125  -0.743  1.00  0.00    -0.447 OA
ENDROOT
BRANCH   1   2
ATOM      2  C   UNL     1       2.900  -0.529  -0.291  1.00  0.00    +0.172 C 
ATOM      3  C   UNL     1       3.537   0.604   0.505  1.00  0.00    +0.053 C 
ATOM      4  C   UNL     1       3.726  -0.845  -1.532  1.00  0.00    +0.053 C 
ENDBRANCH   1   2
BRANCH   1   5
ATOM      5  C   UNL     1       0.573  -0.287   0.143  1.00  0.00    +0.411 C 
ATOM      6  O   UNL     1       0.708  -0.744   1.267  1.00  0.00    -0.224 OA
ATOM      7  N   UNL     1      -0.573   0.148  -0.459  1.00  0.00    -0.291 N 
ATOM      8  H   UNL     1      -0.428   0.485  -1.400  1.00  0.00    +0.173 HD
BRANCH   7   9
ATOM      9  C   UNL     1      -1.878   0.180   0.060  1.00  0.00    +0.044 A 
ATOM     10  C   UNL     1      -2.214  -0.254   1.343  1.00  0.00    +0.026 A 
ATOM     11  C   UNL     1      -2.887   0.680  -0.773  1.00  0.00    +0.026 A 
ATOM     12  C   UNL     1      -3.539  -0.190   1.787  1.00  0.00    +0.002 A 
ATOM     13  C   UNL     1      -4.210   0.744  -0.329  1.00  0.00    +0.002 A 
ATOM     14  C   UNL     1      -4.536   0.309   0.952  1.00  0.00    +0.000 A 
ENDBRANCH   7   9
ENDBRANCH   1   5
TORSDOF 3
