REMARK SMILES NS(=O)(=O)[NH+]1CCc2ccccc2C1
REMARK SMILES IDX 2 1 3 2 4 3 1 4 5 7 6 8 14 9 7 10 13 11 8 12 12 13 9 14
REMARK SMILES IDX 11 15 10 16
REMARK H PARENT 1 5 1 6 5 17
ROOT
ATOM      1  S   UNL     1       2.909   0.404   0.003  1.00  0.00    +0.366 S 
ATOM      2  O   UNL     1       3.137   1.378  -1.024  1.00  0.00    -0.158 OA
ATOM      3  O   UNL     1       3.072   0.636   1.408  1.00  0.00    -0.158 OA
ENDROOT
BRANCH   1   4
ATOM      4  N   UNL     1       3.775  -0.944  -0.411  1.00  0.00    -0.182 NA
ATOM      5  H   UNL     1       4.384  -1.221   0.368  1.00  0.00    +0.142 HD
ATOM      6  H   UNL     1       4.365  -0.744  -1.229  1.00  0.00    +0.142 HD
ENDBRANCH   1   4
BRANCH   1   7
ATOM      7  N   UNL     1       1.331  -0.041  -0.207  1.00  0.00    -0.212 N 
ATOM      8  C   UNL     1       0.927  -1.138   0.708  1.00  0.00    +0.285 C 
ATOM      9  C   UNL     1       0.461   1.154  -0.061  1.00  0.00    +0.317 C 
ATOM     10  C   UNL     1      -0.456  -1.643   0.297  1.00  0.00    +0.098 C 
ATOM     11  C   UNL     1      -1.006   0.801  -0.124  1.00  0.00    +0.011 A 
ATOM     12  C   UNL     1      -1.444  -0.523   0.079  1.00  0.00    -0.034 A 
ATOM     13  C   UNL     1      -1.952   1.814  -0.341  1.00  0.00    +0.010 A 
ATOM     14  C   UNL     1      -2.813  -0.815   0.026  1.00  0.00    +0.004 A 
ATOM     15  C   UNL     1      -3.312   1.512  -0.380  1.00  0.00    +0.001 A 
ATOM     16  C   UNL     1      -3.741   0.200  -0.200  1.00  0.00    +0.000 A 
ATOM     17  H   UNL     1       1.308  -0.342  -1.178  1.00  0.00    +0.367 HD
ENDBRANCH   1   7
TORSDOF 2
