REMARK SMILES CC(=O)c1ccccc1N1CCN(c2nc3c(S(=O)(=O)c4ccccc4)nnn3c3ccc(Cl)cc23)CC1
REMARK SMILES IDX 10 1 11 2 12 3 13 4 14 5 15 6 16 7 17 8 27 9 28 10 29 11
REMARK SMILES IDX 30 12 31 13 32 14 33 15 34 16 35 17 36 18 37 19 38 20 9 21
REMARK SMILES IDX 4 22 5 23 6 24 8 25 7 26 2 27 3 28 1 29 18 30 19 31 20 32
REMARK SMILES IDX 21 33 22 34 26 35 23 36 25 37 24 38
REMARK H PARENT
ROOT
ATOM      1  N   UNL     1      -2.562   0.003  -0.626  1.00  0.00    -0.367 N 
ATOM      2  C   UNL     1      -1.572   1.080  -0.848  1.00  0.00    +0.138 C 
ATOM      3  C   UNL     1      -0.932   1.535   0.483  1.00  0.00    +0.139 C 
ATOM      4  N   UNL     1      -0.290   0.417   1.209  1.00  0.00    -0.352 N 
ATOM      5  C   UNL     1       1.018   0.502   1.667  1.00  0.00    +0.140 C 
ATOM      6  N   UNL     1       1.868  -0.421   1.278  1.00  0.00    -0.208 NA
ATOM      7  C   UNL     1       3.171  -0.307   1.652  1.00  0.00    +0.197 A 
ATOM      8  C   UNL     1       4.315  -1.048   1.427  1.00  0.00    +0.228 A 
ATOM      9  N   UNL     1       5.394  -0.446   2.028  1.00  0.00    -0.115 NA
ATOM     10  N   UNL     1       4.964   0.657   2.630  1.00  0.00    -0.059 NA
ATOM     11  N   UNL     1       3.638   0.738   2.417  1.00  0.00    -0.193 N 
ATOM     12  C   UNL     1       2.801   1.736   2.920  1.00  0.00    +0.080 A 
ATOM     13  C   UNL     1       3.280   2.755   3.748  1.00  0.00    +0.031 A 
ATOM     14  C   UNL     1       2.372   3.670   4.277  1.00  0.00    +0.023 A 
ATOM     15  C   UNL     1       1.010   3.544   3.992  1.00  0.00    +0.041 A 
ATOM     16 Cl   UNL     1      -0.108   4.657   4.680  1.00  0.00    -0.084 Cl
ATOM     17  C   UNL     1       0.540   2.524   3.160  1.00  0.00    +0.034 A 
ATOM     18  C   UNL     1       1.444   1.627   2.587  1.00  0.00    +0.045 A 
ATOM     19  C   UNL     1      -0.871  -0.919   0.941  1.00  0.00    +0.139 C 
ATOM     20  C   UNL     1      -2.365  -0.835   0.570  1.00  0.00    +0.138 C 
ENDROOT
BRANCH   1  21
ATOM     21  C   UNL     1      -3.771   0.025  -1.308  1.00  0.00    +0.048 A 
ATOM     22  C   UNL     1      -3.880   0.246  -2.698  1.00  0.00    +0.041 A 
ATOM     23  C   UNL     1      -5.123   0.365  -3.341  1.00  0.00    +0.014 A 
ATOM     24  C   UNL     1      -6.298   0.221  -2.613  1.00  0.00    +0.001 A 
ATOM     25  C   UNL     1      -4.983  -0.141  -0.613  1.00  0.00    +0.026 A 
ATOM     26  C   UNL     1      -6.227  -0.045  -1.251  1.00  0.00    +0.002 A 
BRANCH  22  27
ATOM     27  C   UNL     1      -2.698   0.278  -3.585  1.00  0.00    +0.161 C 
ATOM     28  O   UNL     1      -2.470   1.276  -4.262  1.00  0.00    -0.294 OA
ATOM     29  C   UNL     1      -1.848  -0.964  -3.662  1.00  0.00    +0.093 C 
ENDBRANCH  22  27
ENDBRANCH   1  21
BRANCH   8  30
ATOM     30  S   UNL     1       4.437  -2.508   0.535  1.00  0.00    +0.229 S 
ATOM     31  O   UNL     1       5.842  -2.658   0.207  1.00  0.00    -0.217 OA
ATOM     32  O   UNL     1       3.728  -3.494   1.330  1.00  0.00    -0.217 OA
BRANCH  30  33
ATOM     33  C   UNL     1       3.557  -2.237  -0.979  1.00  0.00    +0.073 A 
ATOM     34  C   UNL     1       4.136  -1.438  -1.971  1.00  0.00    +0.021 A 
ATOM     35  C   UNL     1       2.320  -2.853  -1.189  1.00  0.00    +0.021 A 
ATOM     36  C   UNL     1       3.456  -1.236  -3.172  1.00  0.00    +0.001 A 
ATOM     37  C   UNL     1       1.648  -2.647  -2.393  1.00  0.00    +0.001 A 
ATOM     38  C   UNL     1       2.213  -1.838  -3.380  1.00  0.00    +0.000 A 
ENDBRANCH  30  33
ENDBRANCH   8  30
TORSDOF 4
