REMARK SMILES O=C(Nc1ccc(CC[NH2+]C[C@H](O)c2cccnc2)cc1)c1ccccc1-c1nc2ccccc2s1
REMARK SMILES IDX 9 1 8 2 7 3 4 4 5 5 21 6 6 7 20 8 3 9 1 10 2 11 22 13 23 14
REMARK SMILES IDX 27 15 24 16 26 17 25 18 28 19 29 20 36 21 30 22 35 23 31 24
REMARK SMILES IDX 34 25 32 26 33 27 10 28 11 31 12 32 13 33 14 35 15 36 19 37
REMARK SMILES IDX 16 38 18 39 17 40
REMARK H PARENT 3 12 10 29 10 30 13 34
ROOT
ATOM      1  C   UNL     1       3.269  -1.857  -0.205  1.00  0.00    +0.265 C 
ENDROOT
BRANCH   1   2
ATOM      2  C   UNL     1       2.129  -2.243   0.748  1.00  0.00    +0.097 C 
BRANCH   2   3
ATOM      3  C   UNL     1       0.902  -1.388   0.553  1.00  0.00    -0.042 A 
ATOM      4  C   UNL     1      -1.301   0.321   0.122  1.00  0.00    +0.041 A 
ATOM      5  C   UNL     1      -0.490   0.479   1.246  1.00  0.00    +0.026 A 
ATOM      6  C   UNL     1      -1.018  -0.719  -0.770  1.00  0.00    +0.026 A 
ATOM      7  C   UNL     1       0.597  -0.372   1.467  1.00  0.00    +0.006 A 
ATOM      8  C   UNL     1       0.075  -1.564  -0.562  1.00  0.00    +0.006 A 
BRANCH   4   9
ATOM      9  N   UNL     1      -2.411   1.139  -0.169  1.00  0.00    -0.322 N 
ATOM     10  O   UNL     1      -2.212   2.810   1.430  1.00  0.00    -0.269 OA
ATOM     11  C   UNL     1      -2.820   2.270   0.511  1.00  0.00    +0.256 C 
ATOM     12  H   UNL     1      -2.979   0.844  -0.963  1.00  0.00    +0.170 HD
BRANCH  11  13
ATOM     13  C   UNL     1      -4.071   2.927   0.023  1.00  0.00    +0.050 A 
ATOM     14  C   UNL     1      -4.066   4.334   0.020  1.00  0.00    +0.014 A 
ATOM     15  C   UNL     1      -5.234   2.240  -0.375  1.00  0.00    +0.023 A 
ATOM     16  C   UNL     1      -5.183   5.055  -0.401  1.00  0.00    +0.001 A 
ATOM     17  C   UNL     1      -6.351   2.983  -0.805  1.00  0.00    +0.012 A 
ATOM     18  C   UNL     1      -6.324   4.379  -0.819  1.00  0.00    +0.001 A 
BRANCH  15  19
ATOM     19  C   UNL     1      -5.336   0.782  -0.369  1.00  0.00    +0.125 A 
ATOM     20  N   UNL     1      -4.733   0.001  -1.242  1.00  0.00    -0.236 NA
ATOM     21  S   UNL     1      -6.255  -0.008   0.843  1.00  0.00    -0.114 S 
ATOM     22  C   UNL     1      -5.050  -1.323  -0.973  1.00  0.00    +0.082 A 
ATOM     23  C   UNL     1      -5.866  -1.531   0.142  1.00  0.00    +0.055 A 
ATOM     24  C   UNL     1      -4.620  -2.442  -1.715  1.00  0.00    +0.030 A 
ATOM     25  C   UNL     1      -6.257  -2.817   0.546  1.00  0.00    +0.021 A 
ATOM     26  C   UNL     1      -5.007  -3.728  -1.323  1.00  0.00    +0.002 A 
ATOM     27  C   UNL     1      -5.814  -3.910  -0.205  1.00  0.00    +0.002 A 
ENDBRANCH  15  19
ENDBRANCH  11  13
ENDBRANCH   4   9
ENDBRANCH   2   3
ENDBRANCH   1   2
BRANCH   1  28
ATOM     28  N   UNL     1       3.633  -0.407  -0.031  1.00  0.00    -0.344 N 
ATOM     29  H   UNL     1       3.970  -0.246   0.929  1.00  0.00    +0.346 HD
ATOM     30  H   UNL     1       2.766   0.145  -0.108  1.00  0.00    +0.346 HD
BRANCH  28  31
ATOM     31  C   UNL     1       4.612   0.160  -1.031  1.00  0.00    +0.297 C 
BRANCH  31  32
ATOM     32  C   UNL     1       6.070  -0.327  -0.827  1.00  0.00    +0.201 C 
BRANCH  32  33
ATOM     33  O   UNL     1       6.147  -1.723  -1.114  1.00  0.00    -0.382 OA
ATOM     34  H   UNL     1       7.096  -1.951  -1.184  1.00  0.00    +0.211 HD
ENDBRANCH  32  33
BRANCH  32  35
ATOM     35  C   UNL     1       6.577  -0.025   0.560  1.00  0.00    +0.004 A 
ATOM     36  C   UNL     1       7.005   1.264   0.902  1.00  0.00    +0.010 A 
ATOM     37  C   UNL     1       6.584  -0.982   1.571  1.00  0.00    +0.117 A 
ATOM     38  C   UNL     1       7.399   1.541   2.209  1.00  0.00    +0.020 A 
ATOM     39  N   UNL     1       6.924  -0.728   2.850  1.00  0.00    -0.264 NA
ATOM     40  C   UNL     1       7.339   0.523   3.142  1.00  0.00    +0.111 A 
ENDBRANCH  32  35
ENDBRANCH  31  32
ENDBRANCH  28  31
ENDBRANCH   1  28
TORSDOF 10
