REMARK SMILES O=C(Nc1cccc(-n2ccc3c(NC(=O)c4ccccc4)nccc32)c1)c1ccc(N2CCOCC2)c(C(F)(F)F)c1
REMARK SMILES IDX 4 1 5 2 6 3 7 4 8 5 27 6 3 7 1 8 2 9 28 11 29 12 43 13 30 14
REMARK SMILES IDX 38 15 31 16 39 17 40 18 41 19 42 20 32 21 33 22 37 23 34 24
REMARK SMILES IDX 36 25 35 26 9 27 10 28 26 29 11 30 25 31 12 32 24 33 13 34
REMARK SMILES IDX 23 35 14 36 15 37 16 38 17 40 18 41 22 42 19 43 21 44 20 45
REMARK H PARENT 3 10 14 39
ROOT
ATOM      1  C   UNL     1      -0.606   2.830  -0.065  1.00  0.00    +0.043 A 
ATOM      2  C   UNL     1      -0.651   4.226   0.002  1.00  0.00    +0.026 A 
ATOM      3  C   UNL     1       0.528   4.971   0.015  1.00  0.00    +0.004 A 
ATOM      4  C   UNL     1       1.765   4.329  -0.042  1.00  0.00    +0.027 A 
ATOM      5  C   UNL     1       1.830   2.930  -0.113  1.00  0.00    +0.048 A 
ATOM      6  C   UNL     1       0.638   2.190  -0.098  1.00  0.00    +0.052 A 
ENDROOT
BRANCH   1   7
ATOM      7  N   UNL     1      -1.838   2.141  -0.071  1.00  0.00    -0.322 N 
ATOM      8  O   UNL     1      -1.189  -0.018  -0.666  1.00  0.00    -0.269 OA
ATOM      9  C   UNL     1      -2.034   0.791  -0.303  1.00  0.00    +0.255 C 
ATOM     10  H   UNL     1      -2.661   2.718   0.039  1.00  0.00    +0.170 HD
BRANCH   9  11
ATOM     11  C   UNL     1      -3.440   0.321  -0.142  1.00  0.00    +0.040 A 
ATOM     12  C   UNL     1      -3.899  -0.707  -0.966  1.00  0.00    +0.016 A 
ATOM     13  C   UNL     1      -4.296   0.856   0.828  1.00  0.00    +0.029 A 
ATOM     14  C   UNL     1      -5.208  -1.176  -0.839  1.00  0.00    +0.027 A 
ATOM     15  C   UNL     1      -5.621   0.388   0.961  1.00  0.00    +0.080 A 
ATOM     16  C   UNL     1      -6.083  -0.639   0.118  1.00  0.00    +0.049 A 
BRANCH  15  17
ATOM     17  C   UNL     1      -6.523   0.978   2.019  1.00  0.00    +0.418 C 
ATOM     18  F   UNL     1      -6.932   0.077   2.956  1.00  0.00    -0.166 F 
ATOM     19  F   UNL     1      -7.652   1.552   1.512  1.00  0.00    -0.166 F 
ATOM     20  F   UNL     1      -5.912   1.977   2.728  1.00  0.00    -0.166 F 
ENDBRANCH  15  17
BRANCH  16  21
ATOM     21  N   UNL     1      -7.386  -1.107   0.237  1.00  0.00    -0.366 N 
ATOM     22  C   UNL     1      -7.564  -2.520   0.622  1.00  0.00    +0.145 C 
ATOM     23  C   UNL     1      -8.346  -0.636  -0.777  1.00  0.00    +0.145 C 
ATOM     24  C   UNL     1      -9.032  -2.769   1.004  1.00  0.00    +0.181 C 
ATOM     25  C   UNL     1      -9.778  -0.976  -0.332  1.00  0.00    +0.181 C 
ATOM     26  O   UNL     1      -9.923  -2.379  -0.055  1.00  0.00    -0.378 OA
ENDBRANCH  16  21
ENDBRANCH   9  11
ENDBRANCH   1   7
BRANCH   5  27
ATOM     27  N   UNL     1       3.100   2.272  -0.160  1.00  0.00    -0.316 N 
ATOM     28  C   UNL     1       4.266   2.804   0.346  1.00  0.00    +0.092 A 
ATOM     29  C   UNL     1       3.407   1.021  -0.713  1.00  0.00    +0.058 A 
ATOM     30  C   UNL     1       5.267   1.870   0.242  1.00  0.00    +0.032 A 
ATOM     31  C   UNL     1       2.649   0.149  -1.509  1.00  0.00    +0.047 A 
ATOM     32  C   UNL     1       4.747   0.712  -0.397  1.00  0.00    +0.043 A 
ATOM     33  C   UNL     1       3.266  -1.021  -1.899  1.00  0.00    +0.116 A 
ATOM     34  C   UNL     1       5.274  -0.538  -0.802  1.00  0.00    +0.142 A 
ATOM     35  N   UNL     1       4.522  -1.369  -1.571  1.00  0.00    -0.238 NA
BRANCH  34  36
ATOM     36  N   UNL     1       6.544  -1.064  -0.567  1.00  0.00    -0.306 N 
ATOM     37  C   UNL     1       7.507  -0.676   0.327  1.00  0.00    +0.256 C 
ATOM     38  O   UNL     1       7.395   0.154   1.220  1.00  0.00    -0.269 OA
ATOM     39  H   UNL     1       6.675  -1.922  -1.082  1.00  0.00    +0.171 HD
BRANCH  37  40
ATOM     40  C   UNL     1       8.795  -1.423   0.216  1.00  0.00    +0.040 A 
ATOM     41  C   UNL     1       9.546  -1.640   1.378  1.00  0.00    +0.014 A 
ATOM     42  C   UNL     1       9.279  -1.881  -1.017  1.00  0.00    +0.014 A 
ATOM     43  C   UNL     1      10.756  -2.333   1.313  1.00  0.00    +0.001 A 
ATOM     44  C   UNL     1      10.491  -2.573  -1.078  1.00  0.00    +0.001 A 
ATOM     45  C   UNL     1      11.225  -2.802   0.086  1.00  0.00    +0.000 A 
ENDBRANCH  37  40
ENDBRANCH  34  36
ENDBRANCH   5  27
TORSDOF 7
