REMARK SMILES O=C(Cn1c(Cl)cnc(NCC(F)(F)c2cccc[n+]2[O-])c1=O)NCc1ccccc1-n1cnnn1
REMARK SMILES IDX 4 1 5 2 6 3 7 4 8 5 9 6 10 7 22 8 23 9 3 11 2 12 1 13 24 14
REMARK SMILES IDX 25 16 26 17 27 18 31 19 28 20 30 21 29 22 32 23 33 24 36 25
REMARK SMILES IDX 34 26 35 27 11 28 12 29 13 30 14 31 15 32 16 33 20 34 17 35
REMARK SMILES IDX 19 36 18 37 21 38
REMARK H PARENT 10 10 24 15
ROOT
ATOM      1  N   UNL     1       0.133  -1.828   3.358  1.00  0.00    -0.285 N 
ATOM      2  C   UNL     1       1.066  -2.793   3.039  1.00  0.00    +0.130 C 
ATOM      3 Cl   UNL     1       0.995  -4.317   3.832  1.00  0.00    -0.062 Cl
ATOM      4  C   UNL     1       2.021  -2.551   2.129  1.00  0.00    +0.152 C 
ATOM      5  N   UNL     1       2.172  -1.387   1.416  1.00  0.00    -0.231 NA
ATOM      6  C   UNL     1       1.322  -0.430   1.664  1.00  0.00    +0.193 C 
ATOM      7  N   UNL     1       1.351   0.766   0.985  1.00  0.00    -0.359 N 
ATOM      8  C   UNL     1       0.201  -0.595   2.719  1.00  0.00    +0.294 C 
ATOM      9  O   UNL     1      -0.580   0.337   2.886  1.00  0.00    -0.265 OA
ATOM     10  H   UNL     1       0.653   1.468   1.241  1.00  0.00    +0.162 HD
ENDROOT
BRANCH   1  11
ATOM     11  C   UNL     1      -1.024  -2.063   4.218  1.00  0.00    +0.226 C 
BRANCH  11  12
ATOM     12  C   UNL     1      -2.153  -2.593   3.332  1.00  0.00    +0.240 C 
ATOM     13  O   UNL     1      -2.396  -3.792   3.220  1.00  0.00    -0.273 OA
ATOM     14  N   UNL     1      -2.785  -1.617   2.589  1.00  0.00    -0.350 N 
ATOM     15  H   UNL     1      -2.528  -0.639   2.714  1.00  0.00    +0.163 HD
BRANCH  14  16
ATOM     16  C   UNL     1      -3.630  -1.935   1.464  1.00  0.00    +0.154 C 
BRANCH  16  17
ATOM     17  C   UNL     1      -2.799  -1.989   0.196  1.00  0.00    -0.003 A 
ATOM     18  C   UNL     1      -2.446  -3.282  -0.253  1.00  0.00    +0.008 A 
ATOM     19  C   UNL     1      -2.300  -0.869  -0.519  1.00  0.00    +0.073 A 
ATOM     20  C   UNL     1      -1.652  -3.477  -1.380  1.00  0.00    +0.001 A 
ATOM     21  C   UNL     1      -1.500  -1.089  -1.661  1.00  0.00    +0.029 A 
ATOM     22  C   UNL     1      -1.182  -2.380  -2.085  1.00  0.00    +0.002 A 
BRANCH  19  23
ATOM     23  N   UNL     1      -2.556   0.480  -0.134  1.00  0.00    -0.200 N 
ATOM     24  C   UNL     1      -2.141   1.652  -0.726  1.00  0.00    +0.252 A 
ATOM     25  N   UNL     1      -3.294   0.826   0.946  1.00  0.00    -0.040 NA
ATOM     26  N   UNL     1      -2.602   2.679  -0.050  1.00  0.00    -0.117 NA
ATOM     27  N   UNL     1      -3.314   2.149   0.986  1.00  0.00    -0.024 NA
ENDBRANCH  19  23
ENDBRANCH  16  17
ENDBRANCH  14  16
ENDBRANCH  11  12
ENDBRANCH   1  11
BRANCH   7  28
ATOM     28  C   UNL     1       2.096   0.972  -0.253  1.00  0.00    +0.203 C 
BRANCH  28  29
ATOM     29  C   UNL     1       2.041   2.441  -0.736  1.00  0.00    +0.347 C 
ATOM     30  F   UNL     1       0.762   2.906  -0.606  1.00  0.00    -0.192 F 
ATOM     31  F   UNL     1       2.757   3.186   0.171  1.00  0.00    -0.192 F 
BRANCH  29  32
ATOM     32  C   UNL     1       2.577   2.626  -2.122  1.00  0.00    +0.264 A 
ATOM     33  C   UNL     1       3.759   3.338  -2.393  1.00  0.00    +0.083 A 
ATOM     34  N   UNL     1       1.840   2.083  -3.164  1.00  0.00    -0.171 N 
ATOM     35  C   UNL     1       4.199   3.499  -3.703  1.00  0.00    +0.013 A 
ATOM     36  C   UNL     1       2.294   2.257  -4.464  1.00  0.00    +0.321 A 
ATOM     37  C   UNL     1       3.464   2.957  -4.748  1.00  0.00    +0.072 A 
ATOM     38  O   UNL     1       0.776   1.417  -2.957  1.00  0.00    -0.618 OA
ENDBRANCH  29  32
ENDBRANCH  28  29
ENDBRANCH   7  28
TORSDOF 8
