REMARK SMILES COC(=O)C[C@H]1C(C)(C)[C@H](OC(C)=O)[C@]2(C(C)=O)C=C3[C@H]([C@H](OC(C)=O)C[C@]4(C)[C@H]3CC(=O)O[C@H]4c3ccoc3)[C@@]1(C)C2=O
REMARK SMILES IDX 6 1 7 2 8 3 9 4 10 5 15 6 19 7 20 8 21 9 22 10 27 11 28 12
REMARK SMILES IDX 29 13 30 14 31 15 32 16 33 17 34 18 35 19 41 20 42 21 43 22
REMARK SMILES IDX 44 23 5 24 3 25 4 26 2 27 1 28 11 29 12 30 14 31 13 32 16 33
REMARK SMILES IDX 18 34 17 35 23 36 24 37 26 38 25 39 36 40 37 41 40 42 38 43
REMARK SMILES IDX 39 44
REMARK H PARENT
ROOT
ATOM      1  C   UNL     1      -1.641  -0.372   0.574  1.00  0.00    +0.024 C 
ATOM      2  C   UNL     1      -2.888  -0.179  -0.382  1.00  0.00    +0.008 C 
ATOM      3  C   UNL     1      -3.179  -1.469  -1.196  1.00  0.00    +0.015 C 
ATOM      4  C   UNL     1      -4.199   0.120   0.390  1.00  0.00    +0.015 C 
ATOM      5  C   UNL     1      -2.580   0.999  -1.391  1.00  0.00    +0.207 C 
ATOM      6  C   UNL     1      -1.819   2.205  -0.762  1.00  0.00    +0.143 C 
ATOM      7  C   UNL     1      -0.300   2.151  -0.995  1.00  0.00    -0.001 C 
ATOM      8  C   UNL     1       0.654   1.812  -0.098  1.00  0.00    -0.060 C 
ATOM      9  C   UNL     1       0.269   1.310   1.310  1.00  0.00    +0.070 C 
ATOM     10  C   UNL     1       1.201   0.168   1.803  1.00  0.00    +0.185 C 
ATOM     11  C   UNL     1       2.681   0.440   1.517  1.00  0.00    +0.057 C 
ATOM     12  C   UNL     1       3.009   0.775   0.047  1.00  0.00    +0.020 C 
ATOM     13  C   UNL     1       4.522   1.129   0.008  1.00  0.00    +0.016 C 
ATOM     14  C   UNL     1       2.161   2.007  -0.367  1.00  0.00    +0.036 C 
ATOM     15  C   UNL     1       2.535   2.404  -1.797  1.00  0.00    +0.131 C 
ATOM     16  C   UNL     1       2.412   1.261  -2.766  1.00  0.00    +0.307 C 
ATOM     17  O   UNL     1       2.054   1.434  -3.927  1.00  0.00    -0.252 OA
ATOM     18  O   UNL     1       2.843   0.056  -2.338  1.00  0.00    -0.457 OA
ATOM     19  C   UNL     1       2.685  -0.369  -0.960  1.00  0.00    +0.216 C 
ATOM     20  C   UNL     1      -1.274   0.940   1.406  1.00  0.00    +0.042 C 
ATOM     21  C   UNL     1      -1.770   0.900   2.869  1.00  0.00    +0.021 C 
ATOM     22  C   UNL     1      -1.958   2.144   0.743  1.00  0.00    +0.160 C 
ATOM     23  O   UNL     1      -2.560   3.002   1.388  1.00  0.00    -0.297 OA
ENDROOT
BRANCH   1  24
ATOM     24  C   UNL     1      -1.718  -1.665   1.437  1.00  0.00    +0.128 C 
BRANCH  24  25
ATOM     25  C   UNL     1      -1.158  -2.888   0.737  1.00  0.00    +0.305 C 
ATOM     26  O   UNL     1      -0.295  -2.857  -0.129  1.00  0.00    -0.252 OA
BRANCH  25  27
ATOM     27  O   UNL     1      -1.727  -4.015   1.244  1.00  0.00    -0.469 OA
ATOM     28  C   UNL     1      -1.213  -5.224   0.683  1.00  0.00    +0.282 C 
ENDBRANCH  25  27
ENDBRANCH  24  25
ENDBRANCH   1  24
BRANCH   5  29
ATOM     29  O   UNL     1      -1.791   0.447  -2.484  1.00  0.00    -0.460 OA
BRANCH  29  30
ATOM     30  C   UNL     1      -1.983   0.998  -3.714  1.00  0.00    +0.302 C 
ATOM     31  O   UNL     1      -2.768   1.905  -3.949  1.00  0.00    -0.253 OA
ATOM     32  C   UNL     1      -1.143   0.307  -4.742  1.00  0.00    +0.139 C 
ENDBRANCH  29  30
ENDBRANCH   5  29
BRANCH   6  33
ATOM     33  C   UNL     1      -2.347   3.561  -1.299  1.00  0.00    +0.151 C 
ATOM     34  O   UNL     1      -1.591   4.434  -1.741  1.00  0.00    -0.298 OA
ATOM     35  C   UNL     1      -3.837   3.818  -1.280  1.00  0.00    +0.089 C 
ENDBRANCH   6  33
BRANCH  10  36
ATOM     36  O   UNL     1       1.082   0.063   3.241  1.00  0.00    -0.462 OA
BRANCH  36  37
ATOM     37  C   UNL     1       1.293  -1.167   3.786  1.00  0.00    +0.302 C 
ATOM     38  O   UNL     1       1.488  -2.193   3.153  1.00  0.00    -0.253 OA
ATOM     39  C   UNL     1       1.220  -1.088   5.279  1.00  0.00    +0.139 C 
ENDBRANCH  36  37
ENDBRANCH  10  36
BRANCH  19  40
ATOM     40  C   UNL     1       3.489  -1.624  -0.745  1.00  0.00    +0.031 A 
ATOM     41  C   UNL     1       4.741  -1.969  -1.340  1.00  0.00    +0.049 A 
ATOM     42  C   UNL     1       3.158  -2.711   0.041  1.00  0.00    +0.202 A 
ATOM     43  C   UNL     1       5.081  -3.209  -0.857  1.00  0.00    +0.195 A 
ATOM     44  O   UNL     1       4.123  -3.664  -0.012  1.00  0.00    -0.472 OA
ENDBRANCH  19  40
TORSDOF 9
