REMARK SMILES CC(=O)OC(C)(C)[C@H]1C[C@@]23O[C@@H]1C[C@@H](C)[C@@H]2[C@@]1(C)CC[C@@]24C[C@@]25CC[C@H](O)C(C)(C)[C@@H]5CC[C@H]4[C@]1(C)[C@H]3O
REMARK SMILES IDX 5 1 6 2 7 3 4 4 2 5 3 6 1 7 8 8 9 9 12 10 10 11 11 12 13 13
REMARK SMILES IDX 16 14 37 15 14 16 17 17 35 18 19 19 34 20 20 21 33 22 21 23
REMARK SMILES IDX 32 24 22 25 23 26 31 27 24 28 28 29 25 30 26 31 15 32 18 33
REMARK SMILES IDX 36 34 29 35 30 36 38 37 27 39
REMARK H PARENT 38 38 27 40
ROOT
ATOM      1  C   UNL     1       5.796  -1.174   0.485  1.00  0.00    +0.112 C 
ATOM      2  C   UNL     1       5.502  -2.104   1.680  1.00  0.00    +0.057 C 
ATOM      3  C   UNL     1       6.295  -2.051  -0.677  1.00  0.00    +0.057 C 
ENDROOT
BRANCH   1   4
ATOM      4  O   UNL     1       6.884  -0.327   0.971  1.00  0.00    -0.459 OA
BRANCH   4   5
ATOM      5  C   UNL     1       7.494   0.583   0.168  1.00  0.00    +0.303 C 
ATOM      6  O   UNL     1       7.216   0.822  -0.996  1.00  0.00    -0.253 OA
ATOM      7  C   UNL     1       8.575   1.283   0.933  1.00  0.00    +0.139 C 
ENDBRANCH   4   5
ENDBRANCH   1   4
BRANCH   1   8
ATOM      8  C   UNL     1       4.571  -0.310   0.069  1.00  0.00    +0.065 C 
ATOM      9  C   UNL     1       3.333  -1.103  -0.371  1.00  0.00    +0.049 C 
ATOM     10  C   UNL     1       4.037   0.595   1.193  1.00  0.00    +0.126 C 
ATOM     11  C   UNL     1       2.180  -0.339   0.275  1.00  0.00    +0.099 C 
ATOM     12  O   UNL     1       2.760   0.041   1.536  1.00  0.00    -0.368 OA
ATOM     13  C   UNL     1       3.764   2.036   0.756  1.00  0.00    +0.036 C 
ATOM     14  C   UNL     1       1.787   0.937  -0.537  1.00  0.00    +0.033 C 
ATOM     15  C   UNL     1       0.853  -1.113   0.548  1.00  0.00    +0.153 C 
ATOM     16  C   UNL     1       2.683   2.187  -0.336  1.00  0.00    -0.005 C 
ATOM     17  C   UNL     1       0.263   1.087  -0.232  1.00  0.00    -0.018 C 
ATOM     18  C   UNL     1      -0.222  -0.407  -0.326  1.00  0.00    +0.005 C 
ATOM     19  C   UNL     1      -0.507   1.923  -1.256  1.00  0.00    +0.008 C 
ATOM     20  C   UNL     1      -1.670  -0.496   0.238  1.00  0.00    +0.005 C 
ATOM     21  C   UNL     1      -2.008   1.602  -1.337  1.00  0.00    +0.008 C 
ATOM     22  C   UNL     1      -2.310  -1.886   0.117  1.00  0.00    +0.005 C 
ATOM     23  C   UNL     1      -2.601   0.622  -0.315  1.00  0.00    -0.020 C 
ATOM     24  C   UNL     1      -3.705  -1.901   0.736  1.00  0.00    +0.005 C 
ATOM     25  C   UNL     1      -3.557   1.207   0.716  1.00  0.00    +0.015 C 
ATOM     26  C   UNL     1      -4.134   0.361  -0.387  1.00  0.00    -0.020 C 
ATOM     27  C   UNL     1      -4.663  -1.057  -0.116  1.00  0.00    +0.004 C 
ATOM     28  C   UNL     1      -4.990   1.085  -1.416  1.00  0.00    +0.010 C 
ATOM     29  C   UNL     1      -6.151  -1.036   0.382  1.00  0.00    -0.006 C 
ATOM     30  C   UNL     1      -6.443   1.148  -0.962  1.00  0.00    +0.033 C 
ATOM     31  C   UNL     1      -7.001  -0.243  -0.659  1.00  0.00    +0.120 C 
ATOM     32  C   UNL     1       3.325   2.608  -1.670  1.00  0.00    +0.008 C 
ATOM     33  C   UNL     1       0.055   1.743   1.170  1.00  0.00    +0.012 C 
ATOM     34  C   UNL     1      -0.175  -1.014  -1.765  1.00  0.00    +0.015 C 
ATOM     35  C   UNL     1      -6.713  -2.477   0.453  1.00  0.00    +0.014 C 
ATOM     36  C   UNL     1      -6.299  -0.428   1.794  1.00  0.00    +0.014 C 
BRANCH  15  37
ATOM     37  O   UNL     1       0.947  -2.508   0.294  1.00  0.00    -0.390 OA
ATOM     38  H   UNL     1       1.494  -2.883   1.008  1.00  0.00    +0.211 HD
ENDBRANCH  15  37
BRANCH  31  39
ATOM     39  O   UNL     1      -8.350  -0.109  -0.211  1.00  0.00    -0.393 OA
ATOM     40  H   UNL     1      -8.846   0.359  -0.904  1.00  0.00    +0.210 HD
ENDBRANCH  31  39
ENDBRANCH   1   8
TORSDOF 5
