REMARK SMILES CC(C)(C)OC(=O)[NH+]1C[C@@H]2C[C@H]1C[NH+]2S(=O)(=O)c1ccc(C(C)(C)C)cc1
REMARK SMILES IDX 8 1 9 2 10 3 11 4 12 5 13 6 14 7 6 10 7 11 5 12 2 13 1 14
REMARK SMILES IDX 3 15 4 16 15 17 16 18 17 19 18 20 19 21 27 22 20 23 26 24
REMARK SMILES IDX 21 25 22 26 23 27 24 28 25 29
REMARK H PARENT 8 8 14 9
ROOT
ATOM      1  N   UNL     1       2.722   0.640  -0.063  1.00  0.00    -0.221 N 
ATOM      2  C   UNL     1       2.456   1.412  -1.345  1.00  0.00    +0.340 C 
ATOM      3  C   UNL     1       1.331   2.382  -0.880  1.00  0.00    +0.262 C 
ATOM      4  C   UNL     1       1.948   2.851   0.439  1.00  0.00    +0.144 C 
ATOM      5  C   UNL     1       2.000   1.439   1.032  1.00  0.00    +0.257 C 
ATOM      6  C   UNL     1       0.488   1.090   0.996  1.00  0.00    +0.346 C 
ATOM      7  N   UNL     1       0.080   1.652  -0.348  1.00  0.00    -0.213 N 
ATOM      8  H   UNL     1       2.384  -0.333  -0.158  1.00  0.00    +0.360 HD
ATOM      9  H   UNL     1      -0.705   2.309  -0.277  1.00  0.00    +0.367 HD
ENDROOT
BRANCH   1  10
ATOM     10  C   UNL     1       4.138   0.461   0.198  1.00  0.00    +0.515 C 
ATOM     11  O   UNL     1       4.737   1.476   0.478  1.00  0.00    -0.187 OA
BRANCH  10  12
ATOM     12  O   UNL     1       4.571  -0.800   0.104  1.00  0.00    -0.414 OA
BRANCH  12  13
ATOM     13  C   UNL     1       5.973  -1.120   0.338  1.00  0.00    +0.110 C 
ATOM     14  C   UNL     1       6.070  -2.638   0.133  1.00  0.00    +0.056 C 
ATOM     15  C   UNL     1       6.380  -0.787   1.777  1.00  0.00    +0.056 C 
ATOM     16  C   UNL     1       6.874  -0.422  -0.687  1.00  0.00    +0.056 C 
ENDBRANCH  12  13
ENDBRANCH  10  12
ENDBRANCH   1  10
BRANCH   7  17
ATOM     17  S   UNL     1      -0.491   0.483  -1.424  1.00  0.00    +0.326 S 
ATOM     18  O   UNL     1      -0.458   1.213  -2.664  1.00  0.00    -0.169 OA
ATOM     19  O   UNL     1       0.407  -0.619  -1.155  1.00  0.00    -0.169 OA
BRANCH  17  20
ATOM     20  C   UNL     1      -2.141   0.082  -0.979  1.00  0.00    +0.121 A 
ATOM     21  C   UNL     1      -2.413  -1.103  -0.297  1.00  0.00    +0.026 A 
ATOM     22  C   UNL     1      -3.171   0.958  -1.318  1.00  0.00    +0.026 A 
ATOM     23  C   UNL     1      -3.728  -1.397   0.078  1.00  0.00    +0.006 A 
ATOM     24  C   UNL     1      -4.480   0.652  -0.938  1.00  0.00    +0.006 A 
ATOM     25  C   UNL     1      -4.788  -0.525  -0.227  1.00  0.00    -0.043 A 
BRANCH  25  26
ATOM     26  C   UNL     1      -6.251  -0.830   0.162  1.00  0.00    -0.013 C 
ATOM     27  C   UNL     1      -7.110  -0.953  -1.114  1.00  0.00    +0.016 C 
ATOM     28  C   UNL     1      -6.425  -2.141   0.962  1.00  0.00    +0.016 C 
ATOM     29  C   UNL     1      -6.803   0.314   1.040  1.00  0.00    +0.016 C 
ENDBRANCH  25  26
ENDBRANCH  17  20
ENDBRANCH   7  17
TORSDOF 6
