REMARK SMILES CCOC(=O)c1c(C)nc(-c2ccccc2)c(C(=O)OCC)c1/C=C/c1ccccc1
REMARK SMILES IDX 6 1 7 2 8 3 9 4 10 5 17 6 23 7 4 8 5 9 3 10 2 11 1 12 24 13
REMARK SMILES IDX 25 14 26 15 27 16 31 17 28 18 30 19 29 20 18 21 19 22 20 23
REMARK SMILES IDX 21 24 22 25 11 26 12 27 16 28 13 29 15 30 14 31
REMARK H PARENT
ROOT
ATOM      1  C   UNL     1      -0.529   2.019   0.393  1.00  0.00    +0.089 A 
ATOM      2  C   UNL     1       0.473   2.989   0.354  1.00  0.00    +0.053 A 
ATOM      3  C   UNL     1       0.283   4.360   0.936  1.00  0.00    +0.068 C 
ATOM      4  N   UNL     1       1.683   2.753  -0.219  1.00  0.00    -0.251 NA
ATOM      5  C   UNL     1       1.927   1.534  -0.775  1.00  0.00    +0.086 A 
ATOM      6  C   UNL     1       0.974   0.514  -0.737  1.00  0.00    +0.094 A 
ATOM      7  C   UNL     1      -0.280   0.747  -0.148  1.00  0.00    +0.008 A 
ENDROOT
BRANCH   1   8
ATOM      8  C   UNL     1      -1.818   2.345   1.020  1.00  0.00    +0.340 C 
ATOM      9  O   UNL     1      -1.951   2.611   2.201  1.00  0.00    -0.246 OA
BRANCH   8  10
ATOM     10  O   UNL     1      -2.771   2.343   0.058  1.00  0.00    -0.462 OA
BRANCH  10  11
ATOM     11  C   UNL     1      -4.101   2.646   0.502  1.00  0.00    +0.230 C 
ATOM     12  C   UNL     1      -4.784   1.392   1.015  1.00  0.00    +0.049 C 
ENDBRANCH  10  11
ENDBRANCH   8  10
ENDBRANCH   1   8
BRANCH   7  13
ATOM     13  C   UNL     1      -1.276  -0.335  -0.075  1.00  0.00    +0.010 C 
ATOM     14  C   UNL     1      -1.546  -0.969   1.077  1.00  0.00    +0.009 C 
BRANCH  14  15
ATOM     15  C   UNL     1      -2.526  -2.057   1.191  1.00  0.00    -0.026 A 
ATOM     16  C   UNL     1      -3.308  -2.145   2.350  1.00  0.00    +0.008 A 
ATOM     17  C   UNL     1      -2.670  -3.040   0.202  1.00  0.00    +0.008 A 
ATOM     18  C   UNL     1      -4.235  -3.178   2.506  1.00  0.00    +0.001 A 
ATOM     19  C   UNL     1      -3.596  -4.074   0.359  1.00  0.00    +0.001 A 
ATOM     20  C   UNL     1      -4.380  -4.141   1.509  1.00  0.00    +0.000 A 
ENDBRANCH  14  15
ENDBRANCH   7  13
BRANCH   6  21
ATOM     21  C   UNL     1       1.289  -0.810  -1.286  1.00  0.00    +0.340 C 
ATOM     22  O   UNL     1       0.797  -1.257  -2.308  1.00  0.00    -0.246 OA
BRANCH  21  23
ATOM     23  O   UNL     1       2.167  -1.415  -0.454  1.00  0.00    -0.462 OA
BRANCH  23  24
ATOM     24  C   UNL     1       2.569  -2.721  -0.881  1.00  0.00    +0.230 C 
ATOM     25  C   UNL     1       3.594  -3.245   0.105  1.00  0.00    +0.049 C 
ENDBRANCH  23  24
ENDBRANCH  21  23
ENDBRANCH   6  21
BRANCH   5  26
ATOM     26  C   UNL     1       3.258   1.413  -1.397  1.00  0.00    +0.001 A 
ATOM     27  C   UNL     1       4.415   1.721  -0.661  1.00  0.00    +0.010 A 
ATOM     28  C   UNL     1       3.418   1.008  -2.734  1.00  0.00    +0.010 A 
ATOM     29  C   UNL     1       5.686   1.604  -1.230  1.00  0.00    +0.001 A 
ATOM     30  C   UNL     1       4.689   0.890  -3.304  1.00  0.00    +0.001 A 
ATOM     31  C   UNL     1       5.822   1.185  -2.550  1.00  0.00    +0.000 A 
ENDBRANCH   5  26
TORSDOF 9
