REMARK SMILES O=C([O-])c1ccc2c(c1)[C@@H]1C=CC[C@@H]1[C@@H](c1ncc(Cl)cc1Cl)[NH2+]2
REMARK SMILES IDX 4 1 5 2 6 3 7 4 8 5 9 6 10 7 11 8 12 9 13 10 14 11 15 12
REMARK SMILES IDX 24 13 2 16 1 17 3 18 16 19 17 20 22 21 18 22 21 23 19 24
REMARK SMILES IDX 23 25 20 26
REMARK H PARENT 24 14 24 15
ROOT
ATOM      1  C   UNL     1      -4.013   1.191   0.208  1.00  0.00    -0.002 A 
ATOM      2  C   UNL     1      -3.299   2.344   0.563  1.00  0.00    +0.016 A 
ATOM      3  C   UNL     1      -1.910   2.363   0.504  1.00  0.00    +0.069 A 
ATOM      4  C   UNL     1      -1.232   1.216   0.095  1.00  0.00    +0.133 A 
ATOM      5  C   UNL     1      -1.901   0.049  -0.267  1.00  0.00    +0.021 A 
ATOM      6  C   UNL     1      -3.301   0.054  -0.210  1.00  0.00    +0.020 A 
ATOM      7  C   UNL     1      -1.179  -1.185  -0.722  1.00  0.00    +0.057 C 
ATOM      8  C   UNL     1      -1.305  -2.355   0.215  1.00  0.00    -0.022 C 
ATOM      9  C   UNL     1      -0.175  -3.068   0.270  1.00  0.00    -0.030 C 
ATOM     10  C   UNL     1       0.872  -2.481  -0.615  1.00  0.00    +0.038 C 
ATOM     11  C   UNL     1       0.358  -1.042  -0.816  1.00  0.00    +0.070 C 
ATOM     12  C   UNL     1       0.882  -0.059   0.256  1.00  0.00    +0.243 C 
ATOM     13  N   UNL     1       0.208   1.270   0.018  1.00  0.00    -0.306 N 
ATOM     14  H   UNL     1       0.491   1.619  -0.909  1.00  0.00    +0.352 HD
ATOM     15  H   UNL     1       0.557   1.953   0.697  1.00  0.00    +0.352 HD
ENDROOT
BRANCH   1  16
ATOM     16  C   UNL     1      -5.528   1.171   0.270  1.00  0.00    +0.071 C 
ATOM     17  O   UNL     1      -6.091   0.085  -0.062  1.00  0.00    -0.545 OA
ATOM     18  O   UNL     1      -6.091   2.241   0.649  1.00  0.00    -0.545 OA
ENDBRANCH   1  16
BRANCH  12  19
ATOM     19  C   UNL     1       2.385   0.168   0.132  1.00  0.00    +0.117 A 
ATOM     20  N   UNL     1       2.747   0.994  -0.900  1.00  0.00    -0.252 NA
ATOM     21  C   UNL     1       3.324  -0.381   1.011  1.00  0.00    +0.070 A 
ATOM     22  C   UNL     1       4.074   1.231  -1.072  1.00  0.00    +0.132 A 
ATOM     23  C   UNL     1       4.677  -0.108   0.808  1.00  0.00    +0.044 A 
ATOM     24  C   UNL     1       5.059   0.705  -0.252  1.00  0.00    +0.060 A 
ATOM     25 Cl   UNL     1       2.883  -1.362   2.354  1.00  0.00    -0.082 Cl
ATOM     26 Cl   UNL     1       6.714   1.057  -0.531  1.00  0.00    -0.083 Cl
ENDBRANCH  12  19
TORSDOF 2
