REMARK SMILES N#CCNC(=O)c1ccc(-c2ccnc(Nc3ccc(N4CCSCC4)cc3)n2)cc1
REMARK SMILES IDX 11 1 12 2 13 3 14 4 15 5 29 6 10 7 7 8 8 9 31 10 9 11 30 12
REMARK SMILES IDX 5 13 4 14 6 15 3 17 1 18 2 19 16 20 17 22 18 23 28 24 19 25
REMARK SMILES IDX 27 26 20 27 21 28 22 29 26 30 23 31 25 32 24 33
REMARK H PARENT 4 16 16 21
ROOT
ATOM      1  C   UNL     1       2.338   1.265  -0.979  1.00  0.00    +0.076 A 
ATOM      2  C   UNL     1       1.965   2.239  -1.881  1.00  0.00    +0.049 A 
ATOM      3  C   UNL     1       0.617   2.455  -2.011  1.00  0.00    +0.117 A 
ATOM      4  N   UNL     1      -0.312   1.776  -1.319  1.00  0.00    -0.221 NA
ATOM      5  C   UNL     1       0.119   0.847  -0.457  1.00  0.00    +0.227 A 
ATOM      6  N   UNL     1       1.420   0.575  -0.262  1.00  0.00    -0.213 NA
ENDROOT
BRANCH   1   7
ATOM      7  C   UNL     1       3.748   0.910  -0.716  1.00  0.00    +0.000 A 
ATOM      8  C   UNL     1       6.445   0.210  -0.170  1.00  0.00    +0.039 A 
ATOM      9  C   UNL     1       6.063   0.616  -1.452  1.00  0.00    +0.014 A 
ATOM     10  C   UNL     1       5.489   0.167   0.847  1.00  0.00    +0.014 A 
ATOM     11  C   UNL     1       4.731   0.955  -1.721  1.00  0.00    +0.011 A 
ATOM     12  C   UNL     1       4.158   0.507   0.570  1.00  0.00    +0.011 A 
BRANCH   8  13
ATOM     13  C   UNL     1       7.874  -0.138   0.062  1.00  0.00    +0.252 C 
ATOM     14  N   UNL     1       8.143  -1.024   1.079  1.00  0.00    -0.339 N 
ATOM     15  O   UNL     1       8.753   0.332  -0.652  1.00  0.00    -0.269 OA
ATOM     16  H   UNL     1       7.392  -1.485   1.577  1.00  0.00    +0.164 HD
BRANCH  14  17
ATOM     17  C   UNL     1       9.513  -1.413   1.359  1.00  0.00    +0.237 C 
ATOM     18  N   UNL     1       9.646  -2.951   3.489  1.00  0.00    -0.196 NA
ATOM     19  C   UNL     1       9.607  -2.272   2.549  1.00  0.00    +0.084 C 
ENDBRANCH  14  17
ENDBRANCH   8  13
ENDBRANCH   1   7
BRANCH   5  20
ATOM     20  N   UNL     1      -0.756   0.084   0.310  1.00  0.00    -0.324 N 
ATOM     21  H   UNL     1      -0.220  -0.559   0.873  1.00  0.00    +0.170 HD
BRANCH  20  22
ATOM     22  C   UNL     1      -2.146   0.032   0.438  1.00  0.00    +0.041 A 
ATOM     23  C   UNL     1      -2.707  -0.896   1.321  1.00  0.00    +0.028 A 
ATOM     24  C   UNL     1      -3.029   0.853  -0.256  1.00  0.00    +0.028 A 
ATOM     25  C   UNL     1      -4.097  -0.999   1.492  1.00  0.00    +0.028 A 
ATOM     26  C   UNL     1      -4.421   0.748  -0.079  1.00  0.00    +0.028 A 
ATOM     27  C   UNL     1      -4.997  -0.189   0.788  1.00  0.00    +0.037 A 
BRANCH  27  28
ATOM     28  N   UNL     1      -6.366  -0.301   0.969  1.00  0.00    -0.370 N 
ATOM     29  C   UNL     1      -7.292   0.788   0.622  1.00  0.00    +0.127 C 
ATOM     30  C   UNL     1      -7.000  -1.625   1.103  1.00  0.00    +0.127 C 
ATOM     31  C   UNL     1      -7.903   0.591  -0.770  1.00  0.00    +0.091 C 
ATOM     32  C   UNL     1      -7.558  -2.101  -0.245  1.00  0.00    +0.091 C 
ATOM     33  S   UNL     1      -8.841  -0.975  -0.907  1.00  0.00    -0.158 SA
ENDBRANCH  27  28
ENDBRANCH  20  22
ENDBRANCH   5  20
TORSDOF 6
