REMARK SMILES CCn1c(=O)c2c(nc([NH2+]C3CCCCC3)n2Cc2ccc(OC)c(F)c2)n(CC)c1=O
REMARK SMILES IDX 18 1 17 2 3 3 4 4 31 5 5 6 6 7 28 8 32 9 7 10 8 11 9 12 2 13
REMARK SMILES IDX 1 14 29 15 30 16 10 17 11 20 12 21 16 22 13 23 15 24 14 25
REMARK SMILES IDX 19 26 20 27 27 28 21 29 25 30 22 31 26 32 23 33 24 34
REMARK H PARENT 10 18 10 19
ROOT
ATOM      1  C   UNL     1       1.445  -0.285  -1.486  1.00  0.00    +0.165 C 
ENDROOT
BRANCH   1   2
ATOM      2  N   UNL     1       0.698   0.644  -0.642  1.00  0.00    -0.267 N 
ATOM      3  N   UNL     1       0.757   4.174  -1.755  1.00  0.00    -0.259 N 
ATOM      4  C   UNL     1       1.089   2.828  -1.915  1.00  0.00    +0.282 C 
ATOM      5  C   UNL     1       0.014   4.714  -0.686  1.00  0.00    +0.332 C 
ATOM      6  O   UNL     1       1.729   2.371  -2.854  1.00  0.00    -0.267 OA
ATOM      7  C   UNL     1       0.591   1.997  -0.869  1.00  0.00    +0.157 A 
ATOM      8  N   UNL     1      -0.439   3.818   0.291  1.00  0.00    -0.276 N 
ATOM      9  O   UNL     1      -0.232   5.920  -0.613  1.00  0.00    -0.247 OA
ATOM     10  C   UNL     1      -0.149   2.482   0.166  1.00  0.00    +0.174 A 
ATOM     11  N   UNL     1      -0.551   1.488   1.004  1.00  0.00    -0.159 NA
ATOM     12  C   UNL     1      -0.070   0.390   0.476  1.00  0.00    +0.309 A 
BRANCH   3  13
ATOM     13  C   UNL     1       1.230   5.106  -2.777  1.00  0.00    +0.127 C 
ATOM     14  C   UNL     1       2.599   5.671  -2.424  1.00  0.00    +0.028 C 
ENDBRANCH   3  13
BRANCH   8  15
ATOM     15  C   UNL     1      -1.240   4.321   1.405  1.00  0.00    +0.126 C 
ATOM     16  C   UNL     1      -2.729   4.256   1.102  1.00  0.00    +0.028 C 
ENDBRANCH   8  15
BRANCH  12  17
ATOM     17  N   UNL     1      -0.390  -0.860   1.161  1.00  0.00    -0.279 N 
ATOM     18  H   UNL     1       0.440  -1.451   1.280  1.00  0.00    +0.355 HD
ATOM     19  H   UNL     1      -0.665  -0.594   2.118  1.00  0.00    +0.355 HD
BRANCH  17  20
ATOM     20  C   UNL     1      -1.516  -1.611   0.524  1.00  0.00    +0.189 C 
ATOM     21  C   UNL     1      -1.591  -2.989   1.191  1.00  0.00    +0.065 C 
ATOM     22  C   UNL     1      -2.840  -0.852   0.682  1.00  0.00    +0.065 C 
ATOM     23  C   UNL     1      -2.764  -3.805   0.652  1.00  0.00    +0.006 C 
ATOM     24  C   UNL     1      -4.015  -1.672   0.151  1.00  0.00    +0.006 C 
ATOM     25  C   UNL     1      -4.082  -3.052   0.798  1.00  0.00    +0.000 C 
ENDBRANCH  17  20
ENDBRANCH  12  17
ENDBRANCH   1   2
BRANCH   1  26
ATOM     26  C   UNL     1       2.015  -1.464  -0.738  1.00  0.00    -0.025 A 
ATOM     27  C   UNL     1       1.656  -2.775  -1.089  1.00  0.00    +0.009 A 
ATOM     28  C   UNL     1       2.936  -1.278   0.303  1.00  0.00    +0.048 A 
ATOM     29  C   UNL     1       2.170  -3.874  -0.388  1.00  0.00    +0.050 A 
ATOM     30  C   UNL     1       3.432  -2.377   1.002  1.00  0.00    +0.165 A 
ATOM     31  C   UNL     1       3.057  -3.681   0.672  1.00  0.00    +0.154 A 
ATOM     32  F   UNL     1       4.267  -2.151   2.025  1.00  0.00    -0.203 F 
BRANCH  31  33
ATOM     33  O   UNL     1       3.585  -4.670   1.452  1.00  0.00    -0.494 OA
ATOM     34  C   UNL     1       3.504  -6.002   0.959  1.00  0.00    +0.278 C 
ENDBRANCH  31  33
ENDBRANCH   1  26
TORSDOF 7
