REMARK SMILES Cc1nc(-c2cc(-c3ccc(Cl)cc3)n(-c3ccc(F)cc3)n2)sc1C(=O)[N-]NC(=S)NC(=O)c1ccccc1
REMARK SMILES IDX 1 1 2 2 3 3 4 4 24 5 25 6 26 7 27 8 28 9 29 10 30 11 31 12
REMARK SMILES IDX 32 13 33 14 34 15 35 18 36 19 40 20 37 21 39 22 38 23 5 24
REMARK SMILES IDX 6 25 23 26 7 27 15 28 8 29 9 30 14 31 10 32 13 33 11 34
REMARK SMILES IDX 12 35 16 36 17 37 22 38 18 39 21 40 19 41 20 42
REMARK H PARENT 29 16 32 17
ROOT
ATOM      1  C   UNL     1       1.764   0.237   4.375  1.00  0.00    +0.068 C 
ATOM      2  C   UNL     1       1.213  -0.337   3.119  1.00  0.00    +0.058 A 
ATOM      3  N   UNL     1       0.160   0.328   2.500  1.00  0.00    -0.239 NA
ATOM      4  C   UNL     1      -0.177  -0.317   1.403  1.00  0.00    +0.144 A 
ATOM      5  S   UNL     1       0.705  -1.740   1.066  1.00  0.00    -0.110 S 
ATOM      6  C   UNL     1       1.664  -1.483   2.472  1.00  0.00    +0.077 A 
ENDROOT
BRANCH   6   7
ATOM      7  C   UNL     1       2.749  -2.365   2.899  1.00  0.00    +0.109 C 
ATOM      8  O   UNL     1       3.150  -2.381   4.063  1.00  0.00    -0.313 OA
BRANCH   7   9
ATOM      9  N   UNL     1       3.253  -3.091   1.888  1.00  0.00    -0.560 NA
BRANCH   9  10
ATOM     10  N   UNL     1       4.534  -3.754   2.252  1.00  0.00    -0.434 N 
ATOM     11  C   UNL     1       5.398  -4.268   1.355  1.00  0.00    +0.159 C 
ATOM     12  S   UNL     1       6.471  -5.463   1.833  1.00  0.00    -0.042 S 
ATOM     13  N   UNL     1       5.412  -3.865   0.046  1.00  0.00    -0.300 N 
ATOM     14  C   UNL     1       4.938  -2.783  -0.694  1.00  0.00    +0.257 C 
ATOM     15  O   UNL     1       4.736  -2.924  -1.905  1.00  0.00    -0.269 OA
ATOM     16  H   UNL     1       4.596  -4.010   3.235  1.00  0.00    +0.143 HD
ATOM     17  H   UNL     1       5.806  -4.569  -0.557  1.00  0.00    +0.172 HD
BRANCH  14  18
ATOM     18  C   UNL     1       4.796  -1.429  -0.095  1.00  0.00    +0.040 A 
ATOM     19  C   UNL     1       3.874  -0.543  -0.673  1.00  0.00    +0.014 A 
ATOM     20  C   UNL     1       5.601  -0.985   0.960  1.00  0.00    +0.014 A 
ATOM     21  C   UNL     1       3.726   0.751  -0.170  1.00  0.00    +0.001 A 
ATOM     22  C   UNL     1       5.449   0.309   1.463  1.00  0.00    +0.001 A 
ATOM     23  C   UNL     1       4.511   1.175   0.901  1.00  0.00    +0.000 A 
ENDBRANCH  14  18
ENDBRANCH   9  10
ENDBRANCH   7   9
ENDBRANCH   6   7
BRANCH   4  24
ATOM     24  C   UNL     1      -1.338   0.217   0.472  1.00  0.00    +0.122 A 
ATOM     25  C   UNL     1      -2.071   1.390   0.717  1.00  0.00    +0.062 A 
ATOM     26  N   UNL     1      -1.728  -0.374  -0.660  1.00  0.00    -0.165 NA
ATOM     27  C   UNL     1      -2.950   1.519  -0.343  1.00  0.00    +0.075 A 
ATOM     28  N   UNL     1      -2.773   0.367  -1.116  1.00  0.00    -0.232 N 
BRANCH  27  29
ATOM     29  C   UNL     1      -3.809   2.662  -0.628  1.00  0.00    +0.000 A 
ATOM     30  C   UNL     1      -3.600   3.443  -1.773  1.00  0.00    +0.012 A 
ATOM     31  C   UNL     1      -4.825   3.020   0.269  1.00  0.00    +0.012 A 
ATOM     32  C   UNL     1      -4.414   4.549  -2.033  1.00  0.00    +0.021 A 
ATOM     33  C   UNL     1      -5.638   4.126   0.010  1.00  0.00    +0.021 A 
ATOM     34  C   UNL     1      -5.431   4.883  -1.141  1.00  0.00    +0.041 A 
ATOM     35 Cl   UNL     1      -6.435   6.243  -1.461  1.00  0.00    -0.084 Cl
ENDBRANCH  27  29
BRANCH  28  36
ATOM     36  C   UNL     1      -3.509  -0.121  -2.245  1.00  0.00    +0.065 A 
ATOM     37  C   UNL     1      -4.775   0.373  -2.589  1.00  0.00    +0.031 A 
ATOM     38  C   UNL     1      -2.953  -1.161  -3.017  1.00  0.00    +0.031 A 
ATOM     39  C   UNL     1      -5.453  -0.140  -3.701  1.00  0.00    +0.041 A 
ATOM     40  C   UNL     1      -3.634  -1.668  -4.126  1.00  0.00    +0.041 A 
ATOM     41  C   UNL     1      -4.876  -1.150  -4.461  1.00  0.00    +0.123 A 
ATOM     42  F   UNL     1      -5.534  -1.634  -5.522  1.00  0.00    -0.207 F 
ENDBRANCH  28  36
ENDBRANCH   4  24
TORSDOF 7
