REMARK SMILES CCC[NH+]1CCN(c2nc3c(cc2F)c(=O)c(C(=O)[O-])cn3CC)CC1
REMARK SMILES IDX 4 1 5 2 6 3 7 4 25 5 26 6 3 8 2 9 1 10 8 11 9 12 13 13 10 14
REMARK SMILES IDX 12 15 11 16 22 17 15 18 21 19 16 20 17 21 14 22 23 23 24 24
REMARK SMILES IDX 18 25 19 26 20 27
REMARK H PARENT 4 7
ROOT
ATOM      1  N   UNL     1       1.915  -1.154  -0.728  1.00  0.00    -0.332 N 
ATOM      2  C   UNL     1       2.904  -0.026  -1.047  1.00  0.00    +0.284 C 
ATOM      3  C   UNL     1       2.493   0.761  -2.324  1.00  0.00    +0.179 C 
ATOM      4  N   UNL     1       1.084   0.502  -2.662  1.00  0.00    -0.343 N 
ATOM      5  C   UNL     1       0.802  -0.903  -3.002  1.00  0.00    +0.179 C 
ATOM      6  C   UNL     1       1.458  -1.881  -1.991  1.00  0.00    +0.284 C 
ATOM      7  H   UNL     1       1.044  -0.670  -0.429  1.00  0.00    +0.348 HD
ENDROOT
BRANCH   1   8
ATOM      8  C   UNL     1       2.337  -2.087   0.365  1.00  0.00    +0.262 C 
BRANCH   8   9
ATOM      9  C   UNL     1       2.598  -1.385   1.695  1.00  0.00    +0.058 C 
ATOM     10  C   UNL     1       1.394  -0.646   2.255  1.00  0.00    +0.010 C 
ENDBRANCH   8   9
ENDBRANCH   1   8
BRANCH   4  11
ATOM     11  C   UNL     1       0.166   1.126  -1.807  1.00  0.00    +0.167 A 
ATOM     12  N   UNL     1      -0.527   0.307  -0.973  1.00  0.00    -0.210 NA
ATOM     13  C   UNL     1       0.083   2.519  -1.706  1.00  0.00    +0.166 A 
ATOM     14  C   UNL     1      -1.335   0.859  -0.023  1.00  0.00    +0.146 A 
ATOM     15  C   UNL     1      -0.705   3.090  -0.725  1.00  0.00    +0.059 A 
ATOM     16  C   UNL     1      -1.405   2.249   0.140  1.00  0.00    +0.069 A 
ATOM     17  N   UNL     1      -2.050   0.015   0.846  1.00  0.00    -0.332 N 
ATOM     18  C   UNL     1      -2.189   2.828   1.254  1.00  0.00    +0.200 C 
ATOM     19  C   UNL     1      -2.702   0.569   1.931  1.00  0.00    +0.101 C 
ATOM     20  O   UNL     1      -2.308   4.045   1.322  1.00  0.00    -0.288 OA
ATOM     21  C   UNL     1      -2.780   1.876   2.203  1.00  0.00    +0.062 C 
ATOM     22  F   UNL     1       0.808   3.309  -2.511  1.00  0.00    -0.203 F 
BRANCH  17  23
ATOM     23  C   UNL     1      -2.156  -1.404   0.515  1.00  0.00    +0.120 C 
ATOM     24  C   UNL     1      -3.231  -1.643  -0.536  1.00  0.00    +0.027 C 
ENDBRANCH  17  23
BRANCH  21  25
ATOM     25  C   UNL     1      -3.423   2.298   3.502  1.00  0.00    +0.077 C 
ATOM     26  O   UNL     1      -2.630   2.805   4.345  1.00  0.00    -0.545 OA
ATOM     27  O   UNL     1      -4.638   1.971   3.627  1.00  0.00    -0.545 OA
ENDBRANCH  21  25
ENDBRANCH   4  11
TORSDOF 5
