REMARK SMILES CCCCCCCCCCC1(C(=O)Nc2c(C)ccc3c2OCCC3=O)CCCC1
REMARK SMILES IDX 7 1 6 2 5 3 4 4 3 5 2 6 1 7 8 8 9 9 10 10 11 11 27 12 30 13
REMARK SMILES IDX 28 14 29 15 12 16 13 17 14 18 15 20 16 21 21 22 18 23 20 24
REMARK SMILES IDX 22 25 19 26 25 27 23 28 24 29 26 30 17 31
REMARK H PARENT 14 19
ROOT
ATOM      1  C   UNL     1       2.504   0.863  -1.174  1.00  0.00    +0.000 C 
ENDROOT
BRANCH   1   2
ATOM      2  C   UNL     1       3.361   2.117  -1.376  1.00  0.00    +0.000 C 
BRANCH   2   3
ATOM      3  C   UNL     1       4.425   2.374  -0.304  1.00  0.00    -0.000 C 
BRANCH   3   4
ATOM      4  C   UNL     1       5.418   1.233  -0.065  1.00  0.00    -0.000 C 
BRANCH   4   5
ATOM      5  C   UNL     1       6.236   0.869  -1.305  1.00  0.00    -0.000 C 
BRANCH   5   6
ATOM      6  C   UNL     1       7.282  -0.200  -0.984  1.00  0.00    -0.003 C 
ATOM      7  C   UNL     1       8.097  -0.569  -2.214  1.00  0.00    +0.004 C 
ENDBRANCH   5   6
ENDBRANCH   4   5
ENDBRANCH   3   4
ENDBRANCH   2   3
ENDBRANCH   1   2
BRANCH   1   8
ATOM      8  C   UNL     1       1.707   0.875   0.131  1.00  0.00    +0.000 C 
BRANCH   8   9
ATOM      9  C   UNL     1       0.791  -0.348   0.232  1.00  0.00    +0.001 C 
BRANCH   9  10
ATOM     10  C   UNL     1      -0.007  -0.334   1.543  1.00  0.00    +0.017 C 
BRANCH  10  11
ATOM     11  C   UNL     1      -0.954  -1.543   1.714  1.00  0.00    +0.050 C 
ATOM     12  C   UNL     1      -0.177  -2.869   1.821  1.00  0.00    +0.017 C 
ATOM     13  C   UNL     1      -1.657  -1.507   3.085  1.00  0.00    +0.017 C 
ATOM     14  C   UNL     1      -1.105  -3.824   2.573  1.00  0.00    +0.001 C 
ATOM     15  C   UNL     1      -2.101  -2.947   3.326  1.00  0.00    +0.001 C 
BRANCH  11  16
ATOM     16  C   UNL     1      -1.994  -1.593   0.564  1.00  0.00    +0.230 C 
ATOM     17  O   UNL     1      -1.961  -2.478  -0.285  1.00  0.00    -0.274 OA
ATOM     18  N   UNL     1      -2.867  -0.525   0.561  1.00  0.00    -0.322 N 
ATOM     19  H   UNL     1      -2.591   0.290   1.099  1.00  0.00    +0.170 HD
BRANCH  18  20
ATOM     20  C   UNL     1      -3.989  -0.282  -0.267  1.00  0.00    +0.087 A 
ATOM     21  C   UNL     1      -4.800  -1.252  -0.886  1.00  0.00    -0.024 A 
ATOM     22  C   UNL     1      -4.309   1.085  -0.432  1.00  0.00    +0.153 A 
ATOM     23  C   UNL     1      -5.847  -0.825  -1.732  1.00  0.00    +0.006 A 
ATOM     24  C   UNL     1      -5.380   1.479  -1.237  1.00  0.00    +0.062 A 
ATOM     25  O   UNL     1      -3.521   1.997   0.245  1.00  0.00    -0.490 OA
ATOM     26  C   UNL     1      -6.139   0.527  -1.908  1.00  0.00    +0.016 A 
ATOM     27  C   UNL     1      -5.715   2.914  -1.343  1.00  0.00    +0.170 C 
ATOM     28  C   UNL     1      -3.492   3.275  -0.398  1.00  0.00    +0.238 C 
ATOM     29  C   UNL     1      -4.882   3.857  -0.523  1.00  0.00    +0.122 C 
ATOM     30  O   UNL     1      -6.659   3.296  -2.027  1.00  0.00    -0.294 OA
ATOM     31  C   UNL     1      -4.673  -2.737  -0.682  1.00  0.00    +0.047 C 
ENDBRANCH  18  20
ENDBRANCH  11  16
ENDBRANCH  10  11
ENDBRANCH   9  10
ENDBRANCH   8   9
ENDBRANCH   1   8
TORSDOF 11
