REMARK SMILES CC(=O)c1nn(-c2ccccc2)cc1C(=O)c1nn(-c2ccccc2)cc1C(=O)c1nn(-c2ccc(C)cc2)cc1C(=O)c1ccccc1
REMARK SMILES IDX 17 1 18 2 19 3 26 4 27 5 15 6 16 7 14 8 4 9 5 10 6 11 13 12
REMARK SMILES IDX 2 13 3 14 1 15 7 16 8 17 12 18 9 19 11 20 10 21 28 22 29 23
REMARK SMILES IDX 30 24 31 25 41 26 32 27 40 28 42 29 43 30 44 31 45 32 49 33
REMARK SMILES IDX 46 34 48 35 47 36 33 37 34 38 39 39 35 40 38 41 36 42 37 43
REMARK SMILES IDX 20 44 21 45 25 46 22 47 24 48 23 49
REMARK H PARENT
ROOT
ATOM      1  C   UNL     1       0.638  -1.282   1.066  1.00  0.00    +0.145 A 
ATOM      2  N   UNL     1       1.933  -1.325   1.441  1.00  0.00    -0.164 NA
ATOM      3  N   UNL     1       2.280  -2.634   1.393  1.00  0.00    -0.239 N 
ATOM      4  C   UNL     1       1.200  -3.424   1.092  1.00  0.00    +0.128 A 
ATOM      5  C   UNL     1       0.124  -2.591   0.840  1.00  0.00    +0.074 A 
ENDROOT
BRANCH   1   6
ATOM      6  C   UNL     1      -0.100  -0.012   1.049  1.00  0.00    +0.217 C 
ATOM      7  O   UNL     1      -1.262   0.053   1.451  1.00  0.00    -0.287 OA
BRANCH   6   8
ATOM      8  C   UNL     1       0.627   1.191   0.653  1.00  0.00    +0.074 A 
ATOM      9  C   UNL     1       1.749   1.397  -0.198  1.00  0.00    +0.139 A 
ATOM     10  N   UNL     1       2.126   2.688  -0.201  1.00  0.00    -0.164 NA
ATOM     11  N   UNL     1       1.216   3.337   0.563  1.00  0.00    -0.239 N 
ATOM     12  C   UNL     1       0.297   2.464   1.086  1.00  0.00    +0.128 A 
BRANCH   9  13
ATOM     13  C   UNL     1       2.459   0.428  -1.047  1.00  0.00    +0.180 C 
ATOM     14  O   UNL     1       1.904  -0.575  -1.498  1.00  0.00    -0.293 OA
ATOM     15  C   UNL     1       3.892   0.731  -1.409  1.00  0.00    +0.095 C 
ENDBRANCH   9  13
BRANCH  11  16
ATOM     16  C   UNL     1       1.288   4.747   0.746  1.00  0.00    +0.065 A 
ATOM     17  C   UNL     1       2.320   5.471   0.127  1.00  0.00    +0.028 A 
ATOM     18  C   UNL     1       0.348   5.429   1.531  1.00  0.00    +0.028 A 
ATOM     19  C   UNL     1       2.410   6.855   0.293  1.00  0.00    +0.002 A 
ATOM     20  C   UNL     1       0.444   6.815   1.693  1.00  0.00    +0.002 A 
ATOM     21  C   UNL     1       1.472   7.525   1.076  1.00  0.00    +0.000 A 
ENDBRANCH  11  16
ENDBRANCH   6   8
ENDBRANCH   1   6
BRANCH   5  22
ATOM     22  C   UNL     1      -1.207  -3.065   0.472  1.00  0.00    +0.217 C 
ATOM     23  O   UNL     1      -1.592  -4.178   0.822  1.00  0.00    -0.287 OA
BRANCH  22  24
ATOM     24  C   UNL     1      -2.054  -2.196  -0.361  1.00  0.00    +0.145 A 
ATOM     25  N   UNL     1      -1.527  -1.336  -1.252  1.00  0.00    -0.164 NA
ATOM     26  C   UNL     1      -3.476  -2.181  -0.421  1.00  0.00    +0.072 A 
ATOM     27  N   UNL     1      -2.584  -0.776  -1.893  1.00  0.00    -0.239 N 
ATOM     28  C   UNL     1      -3.770  -1.292  -1.436  1.00  0.00    +0.128 A 
BRANCH  26  29
ATOM     29  C   UNL     1      -4.474  -2.918   0.337  1.00  0.00    +0.196 C 
ATOM     30  O   UNL     1      -5.497  -3.343  -0.195  1.00  0.00    -0.288 OA
BRANCH  29  31
ATOM     31  C   UNL     1      -4.292  -3.114   1.798  1.00  0.00    +0.023 A 
ATOM     32  C   UNL     1      -4.733  -4.311   2.375  1.00  0.00    +0.012 A 
ATOM     33  C   UNL     1      -3.736  -2.114   2.607  1.00  0.00    +0.012 A 
ATOM     34  C   UNL     1      -4.584  -4.521   3.747  1.00  0.00    +0.001 A 
ATOM     35  C   UNL     1      -3.589  -2.330   3.979  1.00  0.00    +0.001 A 
ATOM     36  C   UNL     1      -4.009  -3.533   4.546  1.00  0.00    +0.000 A 
ENDBRANCH  29  31
ENDBRANCH  26  29
BRANCH  27  37
ATOM     37  C   UNL     1      -2.387   0.223  -2.887  1.00  0.00    +0.065 A 
ATOM     38  C   UNL     1      -1.083   0.581  -3.256  1.00  0.00    +0.028 A 
ATOM     39  C   UNL     1      -3.471   0.866  -3.497  1.00  0.00    +0.028 A 
ATOM     40  C   UNL     1      -0.865   1.571  -4.217  1.00  0.00    +0.005 A 
ATOM     41  C   UNL     1      -3.247   1.857  -4.460  1.00  0.00    +0.005 A 
ATOM     42  C   UNL     1      -1.946   2.209  -4.835  1.00  0.00    -0.051 A 
ATOM     43  C   UNL     1      -1.711   3.296  -5.842  1.00  0.00    +0.044 C 
ENDBRANCH  27  37
ENDBRANCH  22  24
ENDBRANCH   5  22
BRANCH   3  44
ATOM     44  C   UNL     1       3.618  -3.040   1.661  1.00  0.00    +0.065 A 
ATOM     45  C   UNL     1       4.581  -2.072   1.987  1.00  0.00    +0.028 A 
ATOM     46  C   UNL     1       3.995  -4.389   1.600  1.00  0.00    +0.028 A 
ATOM     47  C   UNL     1       5.900  -2.449   2.249  1.00  0.00    +0.002 A 
ATOM     48  C   UNL     1       5.317  -4.759   1.864  1.00  0.00    +0.002 A 
ATOM     49  C   UNL     1       6.267  -3.791   2.188  1.00  0.00    +0.000 A 
ENDBRANCH   3  44
TORSDOF 10
