REMARK SMILES C/C=C(\C)C(=O)O[C@@H]1[C@@H]2OC[C@]3(C)[C@H](OC(C)=O)C[C@H](OC(C)=O)[C@@](C)([C@@H]23)[C@H]2CCO[C@H]3C[C@@H](C4=CCOC4=O)C(C)=C3[C@]12C
REMARK SMILES IDX 8 1 9 2 10 3 11 4 12 5 13 6 14 7 19 8 20 9 25 10 26 11 27 12
REMARK SMILES IDX 28 13 44 14 45 15 7 17 5 18 6 19 3 20 2 21 1 22 4 23 43 24
REMARK SMILES IDX 41 25 32 26 34 27 33 28 42 29 31 30 30 31 29 32 35 34 36 35
REMARK SMILES IDX 39 36 37 37 38 38 40 39 21 40 22 41 24 42 23 43 15 44 16 45
REMARK SMILES IDX 18 46 17 47
REMARK H PARENT
REMARK Flexibility Score:   23.900
ROOT
ATOM      1  C   UNL     1      -0.357   0.786   1.458  1.00  0.00    +0.216 C 
ATOM      2  C   UNL     1       1.020   0.821   2.140  1.00  0.00    +0.164 C 
ATOM      3  O   UNL     1       1.572   2.150   2.292  1.00  0.00    -0.373 OA
ATOM      4  C   UNL     1       2.961   2.129   1.845  1.00  0.00    +0.171 C 
ATOM      5  C   UNL     1       3.374   0.646   1.776  1.00  0.00    +0.034 C 
ATOM      6  C   UNL     1       3.816   0.228   3.195  1.00  0.00    +0.018 C 
ATOM      7  C   UNL     1       4.460   0.229   0.758  1.00  0.00    +0.188 C 
ATOM      8  C   UNL     1       4.380  -1.295   0.460  1.00  0.00    +0.091 C 
ATOM      9  C   UNL     1       2.966  -1.830   0.076  1.00  0.00    +0.186 C 
ATOM     10  C   UNL     1       1.830  -1.392   1.089  1.00  0.00    +0.015 C 
ATOM     11  C   UNL     1       2.014  -2.224   2.377  1.00  0.00    +0.016 C 
ATOM     12  C   UNL     1       2.039   0.108   1.290  1.00  0.00    +0.044 C 
ATOM     13  C   UNL     1       0.354  -1.528   0.464  1.00  0.00    +0.015 CG0
ATOM     14  C   UNL     1      -0.825  -0.698   1.180  1.00  0.00    +0.034 C 
ATOM     15  C   UNL     1      -1.202  -1.392   2.515  1.00  0.00    +0.020 C 
ATOM     16  G   UNL     1      -0.030  -3.003   0.172  1.00  0.00    +0.000 G0
ENDROOT
BRANCH   1  17
ATOM     17  O   UNL     1      -0.232   1.483   0.190  1.00  0.00    -0.455 OA
BRANCH  17  18
ATOM     18  C   UNL     1      -1.030   2.555  -0.021  1.00  0.00    +0.333 C 
ATOM     19  O   UNL     1      -1.896   2.974   0.732  1.00  0.00    -0.247 OA
BRANCH  18  20
ATOM     20  C   UNL     1      -0.717   3.144  -1.363  1.00  0.00    +0.030 C 
ATOM     21  C   UNL     1      -1.581   4.066  -1.834  1.00  0.00    -0.020 C 
ATOM     22  C   UNL     1      -1.522   4.801  -3.134  1.00  0.00    +0.036 C 
ATOM     23  C   UNL     1       0.532   2.676  -2.050  1.00  0.00    +0.052 C 
ENDBRANCH  18  20
ENDBRANCH  17  18
ENDBRANCH   1  17
BRANCH  14  24
ATOM     24  C   UNL     1      -2.102  -0.647   0.295  1.00  0.00    -0.032 C 
ATOM     25  C   UNL     1      -3.354  -0.245   0.621  1.00  0.00    -0.063 C 
ATOM     26  C   UNL     1      -2.052  -0.956  -1.196  1.00  0.00    +0.146 C 
ATOM     27  C   UNL     1      -4.300  -0.298  -0.561  1.00  0.00    +0.055 C 
ATOM     28  C   UNL     1      -3.516  -1.074  -1.613  1.00  0.00    +0.049 C 
ATOM     29  C   UNL     1      -3.884   0.327   1.899  1.00  0.00    +0.040 C 
BRANCH  26  30
ATOM     30  O   UNL     1      -1.370  -2.132  -1.621  1.00  0.00    -0.374 OA
BRANCH  30  31
ATOM     31  C   UNL     1      -1.300  -3.172  -0.657  1.00  0.00    +0.161 C 
BRANCH  31  32
ATOM     32  C   UNL     1      -0.030  -3.003   0.172  1.00  0.00    +0.034 CG0
ATOM     33  G   UNL     1       0.354  -1.528   0.464  1.00  0.00    +0.000 G0
ENDBRANCH  31  32
ENDBRANCH  30  31
ENDBRANCH  26  30
BRANCH  27  34
ATOM     34  C   UNL     1      -5.632  -0.903  -0.270  1.00  0.00    +0.044 C 
ATOM     35  C   UNL     1      -6.845  -0.369  -0.418  1.00  0.00    +0.026 C 
ATOM     36  C   UNL     1      -5.843  -2.254   0.272  1.00  0.00    +0.334 C 
ATOM     37  C   UNL     1      -7.895  -1.309   0.005  1.00  0.00    +0.261 C 
ATOM     38  O   UNL     1      -7.181  -2.468   0.423  1.00  0.00    -0.458 OA
ATOM     39  O   UNL     1      -4.974  -3.063   0.545  1.00  0.00    -0.247 OA
ENDBRANCH  27  34
ENDBRANCH  14  24
BRANCH   9  40
ATOM     40  O   UNL     1       2.639  -1.335  -1.241  1.00  0.00    -0.462 OA
BRANCH  40  41
ATOM     41  C   UNL     1       3.069  -2.071  -2.300  1.00  0.00    +0.302 C 
ATOM     42  O   UNL     1       3.746  -3.086  -2.235  1.00  0.00    -0.253 OA
ATOM     43  C   UNL     1       2.593  -1.447  -3.575  1.00  0.00    +0.139 C 
ENDBRANCH  40  41
ENDBRANCH   9  40
BRANCH   7  44
ATOM     44  O   UNL     1       4.304   0.907  -0.507  1.00  0.00    -0.462 OA
BRANCH  44  45
ATOM     45  C   UNL     1       5.089   1.998  -0.718  1.00  0.00    +0.302 C 
ATOM     46  O   UNL     1       5.851   2.494   0.099  1.00  0.00    -0.253 OA
ATOM     47  C   UNL     1       4.859   2.534  -2.098  1.00  0.00    +0.139 C 
ENDBRANCH  44  45
ENDBRANCH   7  44
TORSDOF 8
