REMARK SMILES C[C@H](O)CNc1nccc(-n2ccnc2-c2cccc(NC(=O)c3ccc(Cl)c(C(F)(F)F)c3)c2)n1
REMARK SMILES IDX 6 1 7 2 8 3 9 4 10 5 36 6 5 7 4 9 2 10 1 11 3 12 11 14 12 15
REMARK SMILES IDX 15 16 13 17 14 18 16 19 17 20 35 21 18 22 20 23 19 24 21 25
REMARK SMILES IDX 22 26 23 27 24 29 25 30 34 31 26 32 29 33 27 34 28 35 30 36
REMARK SMILES IDX 31 37 32 38 33 39
REMARK H PARENT 5 8 3 13 21 28
ROOT
ATOM      1  C   UNL     1      -3.813  -0.639  -0.469  1.00  0.00    +0.224 A 
ATOM      2  N   UNL     1      -5.135  -0.778  -0.337  1.00  0.00    -0.222 NA
ATOM      3  C   UNL     1      -5.572  -1.888   0.280  1.00  0.00    +0.119 A 
ATOM      4  C   UNL     1      -4.740  -2.863   0.773  1.00  0.00    +0.068 A 
ATOM      5  C   UNL     1      -3.390  -2.649   0.583  1.00  0.00    +0.143 A 
ATOM      6  N   UNL     1      -2.927  -1.544  -0.040  1.00  0.00    -0.195 NA
ENDROOT
BRANCH   1   7
ATOM      7  N   UNL     1      -3.394   0.517  -1.066  1.00  0.00    -0.352 N 
ATOM      8  H   UNL     1      -4.137   1.055  -1.486  1.00  0.00    +0.163 HD
BRANCH   7   9
ATOM      9  C   UNL     1      -2.004   0.712  -1.428  1.00  0.00    +0.147 C 
BRANCH   9  10
ATOM     10  C   UNL     1      -1.771   2.194  -1.771  1.00  0.00    +0.130 C 
ATOM     11  C   UNL     1      -0.326   2.463  -2.157  1.00  0.00    +0.040 C 
BRANCH  10  12
ATOM     12  O   UNL     1      -2.088   3.008  -0.635  1.00  0.00    -0.392 OA
ATOM     13  H   UNL     1      -2.833   2.562  -0.186  1.00  0.00    +0.211 HD
ENDBRANCH  10  12
ENDBRANCH   9  10
ENDBRANCH   7   9
ENDBRANCH   1   7
BRANCH   5  14
ATOM     14  N   UNL     1      -2.436  -3.591   1.083  1.00  0.00    -0.284 N 
ATOM     15  C   UNL     1      -2.692  -4.632   1.958  1.00  0.00    +0.115 A 
ATOM     16  C   UNL     1      -1.061  -3.638   0.833  1.00  0.00    +0.145 A 
ATOM     17  C   UNL     1      -1.477  -5.191   2.260  1.00  0.00    +0.132 A 
ATOM     18  N   UNL     1      -0.479  -4.565   1.577  1.00  0.00    -0.236 NA
BRANCH  16  19
ATOM     19  C   UNL     1      -0.328  -2.831  -0.142  1.00  0.00    +0.020 A 
ATOM     20  C   UNL     1      -0.476  -3.064  -1.514  1.00  0.00    +0.012 A 
ATOM     21  C   UNL     1       0.578  -1.856   0.296  1.00  0.00    +0.038 A 
ATOM     22  C   UNL     1       0.258  -2.314  -2.431  1.00  0.00    +0.003 A 
ATOM     23  C   UNL     1       1.307  -1.087  -0.621  1.00  0.00    +0.042 A 
ATOM     24  C   UNL     1       1.141  -1.326  -1.987  1.00  0.00    +0.026 A 
BRANCH  23  25
ATOM     25  N   UNL     1       2.157  -0.091  -0.093  1.00  0.00    -0.322 N 
ATOM     26  C   UNL     1       2.962   0.783  -0.798  1.00  0.00    +0.255 C 
ATOM     27  O   UNL     1       3.151   0.803  -2.008  1.00  0.00    -0.269 OA
ATOM     28  H   UNL     1       2.186  -0.042   0.917  1.00  0.00    +0.170 HD
BRANCH  26  29
ATOM     29  C   UNL     1       3.680   1.787   0.036  1.00  0.00    +0.040 A 
ATOM     30  C   UNL     1       4.975   2.159  -0.335  1.00  0.00    +0.015 A 
ATOM     31  C   UNL     1       3.077   2.394   1.147  1.00  0.00    +0.028 A 
ATOM     32  C   UNL     1       5.672   3.107   0.416  1.00  0.00    +0.022 A 
ATOM     33  C   UNL     1       3.773   3.353   1.914  1.00  0.00    +0.075 A 
ATOM     34  C   UNL     1       5.077   3.698   1.535  1.00  0.00    +0.053 A 
ATOM     35 Cl   UNL     1       6.007   4.861   2.408  1.00  0.00    -0.084 Cl
BRANCH  33  36
ATOM     36  C   UNL     1       3.107   3.990   3.106  1.00  0.00    +0.417 C 
ATOM     37  F   UNL     1       2.960   5.336   2.983  1.00  0.00    -0.166 F 
ATOM     38  F   UNL     1       1.850   3.505   3.328  1.00  0.00    -0.166 F 
ATOM     39  F   UNL     1       3.781   3.774   4.268  1.00  0.00    -0.166 F 
ENDBRANCH  33  36
ENDBRANCH  26  29
ENDBRANCH  23  25
ENDBRANCH  16  19
ENDBRANCH   5  14
TORSDOF 9
