REMARK SMILES Cc1cc(NC(=O)Nc2cc(N3CCOCC3)cc(C(F)(F)F)c2)ccc1-c1nc2[n-]ncc2[n-]1
REMARK SMILES IDX 9 1 10 2 11 3 18 4 19 5 24 6 8 7 5 8 6 9 7 10 4 13 2 14 3 15
REMARK SMILES IDX 27 16 26 17 25 18 1 19 28 20 29 21 35 22 30 23 34 24 31 25
REMARK SMILES IDX 33 26 32 27 12 28 13 29 17 30 14 31 16 32 15 33 20 34 21 35
REMARK SMILES IDX 22 36 23 37
REMARK H PARENT 5 11 8 12
ROOT
ATOM      1  C   UNL     1      -2.098  -2.070  -0.287  1.00  0.00    +0.045 A 
ATOM      2  C   UNL     1      -2.823  -0.889  -0.485  1.00  0.00    +0.052 A 
ATOM      3  C   UNL     1      -4.224  -0.871  -0.611  1.00  0.00    +0.039 A 
ATOM      4  C   UNL     1      -4.879  -2.109  -0.562  1.00  0.00    +0.039 A 
ATOM      5  C   UNL     1      -4.182  -3.315  -0.373  1.00  0.00    +0.060 A 
ATOM      6  C   UNL     1      -2.787  -3.283  -0.244  1.00  0.00    +0.039 A 
ENDROOT
BRANCH   1   7
ATOM      7  N   UNL     1      -0.695  -2.120  -0.150  1.00  0.00    -0.308 N 
ATOM      8  N   UNL     1       1.492  -1.510  -0.049  1.00  0.00    -0.308 N 
ATOM      9  C   UNL     1       0.185  -1.050  -0.010  1.00  0.00    +0.323 C 
ATOM     10  O   UNL     1      -0.161   0.115   0.136  1.00  0.00    -0.248 OA
ATOM     11  H   UNL     1       1.631  -2.468  -0.323  1.00  0.00    +0.171 HD
ATOM     12  H   UNL     1      -0.282  -3.034  -0.054  1.00  0.00    +0.171 HD
BRANCH   8  13
ATOM     13  C   UNL     1       2.683  -0.786   0.174  1.00  0.00    +0.043 A 
ATOM     14  C   UNL     1       3.965   1.212   0.787  1.00  0.00    -0.042 A 
ATOM     15  C   UNL     1       2.732   0.556   0.561  1.00  0.00    +0.030 A 
ATOM     16  C   UNL     1       5.160   0.491   0.618  1.00  0.00    -0.024 A 
ATOM     17  C   UNL     1       5.104  -0.854   0.228  1.00  0.00    +0.010 A 
ATOM     18  C   UNL     1       3.881  -1.486   0.009  1.00  0.00    +0.027 A 
ATOM     19  C   UNL     1       3.949   2.656   1.202  1.00  0.00    +0.045 C 
BRANCH  16  20
ATOM     20  C   UNL     1       6.621   1.102   0.849  1.00  0.00    -0.051 A 
ATOM     21  N   UNL     1       7.782   0.354   0.677  1.00  0.00    -0.438 NA
ATOM     22  N   UNL     1       6.908   2.404   1.240  1.00  0.00    -0.434 NA
ATOM     23  C   UNL     1       8.760   1.215   0.967  1.00  0.00    -0.037 A 
ATOM     24  C   UNL     1       8.242   2.378   1.286  1.00  0.00    -0.022 A 
ATOM     25  N   UNL     1      10.091   1.126   0.998  1.00  0.00    -0.354 NA
ATOM     26  C   UNL     1       9.314   3.146   1.555  1.00  0.00    +0.113 A 
ATOM     27  N   UNL     1      10.485   2.431   1.395  1.00  0.00    -0.267 NA
ENDBRANCH  16  20
ENDBRANCH   8  13
ENDBRANCH   1   7
BRANCH   3  28
ATOM     28  N   UNL     1      -4.907   0.325  -0.801  1.00  0.00    -0.367 N 
ATOM     29  C   UNL     1      -6.282   0.348  -1.321  1.00  0.00    +0.145 C 
ATOM     30  C   UNL     1      -4.568   1.473   0.071  1.00  0.00    +0.145 C 
ATOM     31  C   UNL     1      -6.614   1.728  -1.908  1.00  0.00    +0.181 C 
ATOM     32  C   UNL     1      -4.999   2.795  -0.582  1.00  0.00    +0.181 C 
ATOM     33  O   UNL     1      -6.387   2.778  -0.956  1.00  0.00    -0.378 OA
ENDBRANCH   3  28
BRANCH   5  34
ATOM     34  C   UNL     1      -4.929  -4.621  -0.343  1.00  0.00    +0.416 C 
ATOM     35  F   UNL     1      -6.132  -4.535   0.293  1.00  0.00    -0.166 F 
ATOM     36  F   UNL     1      -4.250  -5.621   0.287  1.00  0.00    -0.166 F 
ATOM     37  F   UNL     1      -5.205  -5.090  -1.592  1.00  0.00    -0.166 F 
ENDBRANCH   5  34
TORSDOF 5
