REMARK SMILES Cc1nc(-c2ccc(-c3ccccc3S(=O)(=O)Nc3onc(C)c3C)cc2)oc1C
REMARK SMILES IDX 9 1 10 2 11 3 12 4 13 5 14 6 8 7 5 8 6 9 27 10 7 11 26 12
REMARK SMILES IDX 4 13 2 14 3 15 29 16 28 17 1 18 30 19 15 20 16 21 17 22
REMARK SMILES IDX 18 23 19 25 20 26 24 27 21 28 22 29 25 30 23 31
REMARK H PARENT 18 24
ROOT
ATOM      1  C   UNL     1      -0.926  -2.393  -0.171  1.00  0.00    +0.002 A 
ATOM      2  C   UNL     1      -1.058  -3.379  -1.172  1.00  0.00    +0.010 A 
ATOM      3  C   UNL     1      -2.212  -4.156  -1.291  1.00  0.00    +0.001 A 
ATOM      4  C   UNL     1      -3.269  -3.969  -0.409  1.00  0.00    +0.001 A 
ATOM      5  C   UNL     1      -3.171  -3.005   0.592  1.00  0.00    +0.023 A 
ATOM      6  C   UNL     1      -2.011  -2.217   0.714  1.00  0.00    +0.095 A 
ENDROOT
BRANCH   1   7
ATOM      7  C   UNL     1       0.320  -1.614  -0.147  1.00  0.00    -0.017 A 
ATOM      8  C   UNL     1       2.735  -0.117  -0.143  1.00  0.00    +0.037 A 
ATOM      9  C   UNL     1       1.761   0.096  -1.127  1.00  0.00    +0.014 A 
ATOM     10  C   UNL     1       2.492  -1.097   0.828  1.00  0.00    +0.014 A 
ATOM     11  C   UNL     1       0.575  -0.648  -1.133  1.00  0.00    +0.009 A 
ATOM     12  C   UNL     1       1.306  -1.841   0.821  1.00  0.00    +0.009 A 
BRANCH   8  13
ATOM     13  C   UNL     1       3.982   0.643  -0.109  1.00  0.00    +0.226 A 
ATOM     14  C   UNL     1       5.889   1.500   0.301  1.00  0.00    +0.079 A 
ATOM     15  N   UNL     1       4.992   0.550   0.735  1.00  0.00    -0.214 NA
ATOM     16  C   UNL     1       5.377   2.141  -0.807  1.00  0.00    +0.124 A 
ATOM     17  O   UNL     1       4.153   1.598  -1.078  1.00  0.00    -0.441 OA
ATOM     18  C   UNL     1       7.174   1.712   0.996  1.00  0.00    +0.070 C 
ATOM     19  C   UNL     1       5.842   3.215  -1.699  1.00  0.00    +0.090 C 
ENDBRANCH   8  13
ENDBRANCH   1   7
BRANCH   6  20
ATOM     20  S   UNL     1      -1.988  -1.012   2.034  1.00  0.00    +0.264 S 
ATOM     21  O   UNL     1      -0.816  -1.266   2.843  1.00  0.00    -0.201 OA
ATOM     22  O   UNL     1      -3.300  -1.004   2.652  1.00  0.00    -0.201 OA
BRANCH  20  23
ATOM     23  N   UNL     1      -1.771   0.483   1.272  1.00  0.00    -0.247 N 
ATOM     24  H   UNL     1      -0.794   0.599   1.001  1.00  0.00    +0.183 HD
BRANCH  23  25
ATOM     25  C   UNL     1      -2.729   0.758   0.214  1.00  0.00    +0.241 A 
ATOM     26  O   UNL     1      -2.440   0.641  -1.107  1.00  0.00    -0.337 OA
ATOM     27  C   UNL     1      -4.015   1.226   0.364  1.00  0.00    +0.037 A 
ATOM     28  N   UNL     1      -3.548   0.974  -1.858  1.00  0.00    -0.082 NA
ATOM     29  C   UNL     1      -4.490   1.324  -0.975  1.00  0.00    +0.086 A 
ATOM     30  C   UNL     1      -4.747   1.557   1.607  1.00  0.00    +0.052 C 
ATOM     31  C   UNL     1      -5.826   1.760  -1.444  1.00  0.00    +0.071 C 
ENDBRANCH  23  25
ENDBRANCH  20  23
ENDBRANCH   6  20
TORSDOF 5
