REMARK SMILES Nc1ncnc2c1ncn2[C@@H]1CC[C@@H](OCC(=O)[O-])C1
REMARK SMILES IDX 11 1 12 2 13 3 14 4 20 5 10 6 2 7 3 8 7 9 4 10 6 11 8 12
REMARK SMILES IDX 5 13 9 14 1 15 15 18 16 19 17 20 18 21 19 22
REMARK H PARENT 1 16 1 17
ROOT
ATOM      1  C   UNL     1      -0.528  -0.518   0.335  1.00  0.00    +0.093 C 
ATOM      2  C   UNL     1      -0.450  -1.797  -0.523  1.00  0.00    +0.028 C 
ATOM      3  C   UNL     1      -1.127  -1.438  -1.849  1.00  0.00    +0.034 C 
ATOM      4  C   UNL     1      -2.061  -0.282  -1.491  1.00  0.00    +0.120 C 
ATOM      5  C   UNL     1      -1.173   0.541  -0.566  1.00  0.00    +0.057 C 
ENDROOT
BRANCH   1   6
ATOM      6  N   UNL     1       0.727  -0.091   0.914  1.00  0.00    -0.312 N 
ATOM      7  C   UNL     1       4.117   0.789   0.882  1.00  0.00    +0.155 A 
ATOM      8  N   UNL     1       4.447   0.674  -0.425  1.00  0.00    -0.217 NA
ATOM      9  C   UNL     1       2.796   0.507   1.272  1.00  0.00    +0.150 A 
ATOM     10  C   UNL     1       3.482   0.295  -1.291  1.00  0.00    +0.226 A 
ATOM     11  C   UNL     1       1.917   0.124   0.271  1.00  0.00    +0.165 A 
ATOM     12  N   UNL     1       2.168   0.536   2.501  1.00  0.00    -0.231 NA
ATOM     13  N   UNL     1       2.193  -0.004  -1.039  1.00  0.00    -0.217 NA
ATOM     14  C   UNL     1       0.922   0.191   2.244  1.00  0.00    +0.202 A 
BRANCH   7  15
ATOM     15  N   UNL     1       5.092   1.180   1.772  1.00  0.00    -0.382 N 
ATOM     16  H   UNL     1       6.009   1.390   1.416  1.00  0.00    +0.158 HD
ATOM     17  H   UNL     1       4.837   1.290   2.743  1.00  0.00    +0.158 HD
ENDBRANCH   7  15
ENDBRANCH   1   6
BRANCH   4  18
ATOM     18  O   UNL     1      -3.195  -0.861  -0.846  1.00  0.00    -0.372 OA
BRANCH  18  19
ATOM     19  C   UNL     1      -4.257   0.075  -0.556  1.00  0.00    +0.213 C 
BRANCH  19  20
ATOM     20  C   UNL     1      -4.074   0.839   0.778  1.00  0.00    +0.067 C 
ATOM     21  O   UNL     1      -3.536   0.205   1.731  1.00  0.00    -0.548 OA
ATOM     22  O   UNL     1      -4.480   2.039   0.750  1.00  0.00    -0.548 OA
ENDBRANCH  19  20
ENDBRANCH  18  19
ENDBRANCH   4  18
TORSDOF 5
