REMARK SMILES C=C1[C@@H]2C[C@]3(O)[C@H]4O[C@]45C=CC(=O)OC(C)(C)[C@@H]5[C@H](OC(C)=O)C[C@H]3[C@]2(C)CC[C@@]1(O)[C@@H](C)[C@H]1CC=C(C)C(=O)O1
REMARK SMILES IDX 1 1 2 2 3 3 4 4 5 5 25 6 26 7 27 8 28 9 29 10 30 11 31 12
REMARK SMILES IDX 32 14 33 15 34 16 35 17 41 18 36 19 39 20 37 21 40 22 38 23
REMARK SMILES IDX 6 24 7 26 8 27 9 28 10 29 11 30 18 32 15 34 16 35 17 36
REMARK SMILES IDX 14 37 12 38 13 39 24 41 19 42 20 44 21 45 23 46 22 47
REMARK H PARENT 31 13 6 25
REMARK Flexibility Score:   55.800
ROOT
ATOM      1  C   UNL     1       3.255   0.672  -1.971  1.00  0.00    +0.011 C 
ATOM      2  C   UNL     1       2.437  -0.036  -1.168  1.00  0.00    -0.042 C 
ATOM      3  C   UNL     1       0.939   0.254  -1.267  1.00  0.00    +0.027 C 
ATOM      4  C   UNL     1       0.405   1.271  -0.255  1.00  0.00    +0.047 C 
ATOM      5  C   UNL     1      -1.108   1.193  -0.484  1.00  0.00    +0.098 C 
ATOM      6  C   UNL     1      -1.384  -0.322  -0.596  1.00  0.00    +0.034 C 
ATOM      7  C   UNL     1      -0.037  -0.951  -1.145  1.00  0.00    -0.020 C 
ATOM      8  C   UNL     1      -0.164  -1.637  -2.519  1.00  0.00    +0.012 C 
ATOM      9  C   UNL     1       0.473  -1.976  -0.103  1.00  0.00    +0.011 C 
ATOM     10  C   UNL     1       1.944  -2.342  -0.288  1.00  0.00    +0.041 C 
ATOM     11  C   UNL     1       2.887  -1.117  -0.179  1.00  0.00    +0.092 C 
ENDROOT
BRANCH  11  12
ATOM     12  O   UNL     1       2.678  -0.568   1.134  1.00  0.00    -0.385 OA
ATOM     13  H   UNL     1       2.849   0.388   1.079  1.00  0.00    +0.211 HD
ENDBRANCH  11  12
BRANCH  11  14
ATOM     14  C   UNL     1       4.381  -1.628  -0.219  1.00  0.00    +0.063 C 
ATOM     15  C   UNL     1       4.795  -2.254  -1.563  1.00  0.00    +0.015 C 
BRANCH  14  16
ATOM     16  C   UNL     1       5.410  -0.583   0.321  1.00  0.00    +0.186 C 
ATOM     17  C   UNL     1       5.696  -0.776   1.816  1.00  0.00    +0.073 C 
ATOM     18  O   UNL     1       6.653  -0.679  -0.411  1.00  0.00    -0.458 OA
ATOM     19  C   UNL     1       6.789   0.155   2.233  1.00  0.00    -0.012 C 
ATOM     20  C   UNL     1       7.708   0.093  -0.043  1.00  0.00    +0.333 C 
ATOM     21  C   UNL     1       7.709   0.593   1.358  1.00  0.00    +0.030 C 
ATOM     22  O   UNL     1       8.628   0.335  -0.813  1.00  0.00    -0.247 OA
ATOM     23  C   UNL     1       8.819   1.526   1.728  1.00  0.00    +0.052 C 
ENDBRANCH  14  16
ENDBRANCH  11  14
BRANCH   5  24
ATOM     24  O   UNL     1      -1.394   1.849  -1.721  1.00  0.00    -0.387 OA
ATOM     25  H   UNL     1      -1.500   2.797  -1.513  1.00  0.00    +0.211 HD
ENDBRANCH   5  24
BRANCH   5  26
ATOM     26  C   UNL     1      -1.886   1.815   0.635  1.00  0.00    +0.188 C 
ATOM     27  O   UNL     1      -2.634   2.983   0.296  1.00  0.00    -0.358 OA
ATOM     28  C   UNL     1      -3.418   1.823   0.670  1.00  0.00    +0.127 C 
BRANCH  28  29
ATOM     29  C   UNL     1      -4.007   1.773   2.026  1.00  0.00    +0.019 C 
ATOM     30  C   UNL     1      -5.202   1.361   2.464  1.00  0.00    +0.092 CG0
ATOM     31  G   UNL     1      -6.344   0.773   1.756  1.00  0.00    +0.000 G0
ENDBRANCH  28  29
BRANCH  28  32
ATOM     32  C   UNL     1      -4.202   1.269  -0.522  1.00  0.00    +0.112 CG1
ATOM     33  G   UNL     1      -3.996  -0.269  -0.699  1.00  0.00    +0.000 G1
BRANCH  32  34
ATOM     34  C   UNL     1      -5.699   1.711  -0.482  1.00  0.00    +0.116 C 
ATOM     35  C   UNL     1      -6.355   1.456  -1.862  1.00  0.00    +0.057 C 
ATOM     36  C   UNL     1      -5.909   3.214  -0.203  1.00  0.00    +0.057 C 
BRANCH  34  37
ATOM     37  O   UNL     1      -6.486   0.908   0.429  1.00  0.00    -0.456 OA
BRANCH  37  38
ATOM     38  C   UNL     1      -6.344   0.773   1.756  1.00  0.00    +0.331 CG0
ATOM     39  O   UNL     1      -7.172   0.150   2.415  1.00  0.00    -0.247 OA
ATOM     40  G   UNL     1      -5.202   1.361   2.464  1.00  0.00    +0.000 G0
ENDBRANCH  37  38
ENDBRANCH  34  37
ENDBRANCH  32  34
ENDBRANCH  28  32
ENDBRANCH   5  26
BRANCH   6  41
ATOM     41  C   UNL     1      -2.663  -0.665  -1.377  1.00  0.00    +0.053 C 
BRANCH  41  42
ATOM     42  C   UNL     1      -3.996  -0.269  -0.699  1.00  0.00    +0.187 CG1
ATOM     43  G   UNL     1      -4.202   1.269  -0.522  1.00  0.00    +0.000 G1
BRANCH  42  44
ATOM     44  O   UNL     1      -4.113  -0.943   0.572  1.00  0.00    -0.462 OA
BRANCH  44  45
ATOM     45  C   UNL     1      -4.572  -2.226   0.545  1.00  0.00    +0.302 C 
ATOM     46  O   UNL     1      -4.855  -2.859  -0.461  1.00  0.00    -0.253 OA
ATOM     47  C   UNL     1      -4.667  -2.764   1.939  1.00  0.00    +0.139 C 
ENDBRANCH  44  45
ENDBRANCH  42  44
ENDBRANCH  41  42
ENDBRANCH   6  41
TORSDOF 6
