REMARK SMILES Cc1cc(=O)c2c([O-])c3c([O-])cc([O-])c4c5c([O-])cc(=O)c6c([O-])c7c([O-])cc(C)cc7c(c65)c(c2c1)c34
REMARK SMILES IDX 1 1 2 2 3 3 4 4 5 5 6 6 7 7 8 8 9 9 10 10 11 11 12 12 13 13
REMARK SMILES IDX 14 14 15 15 16 16 17 17 18 18 19 19 20 20 21 21 22 22 23 23
REMARK SMILES IDX 24 24 25 25 26 26 27 27 28 28 29 29 30 30 31 31 32 32 33 33
REMARK SMILES IDX 34 34 35 35 36 36 37 37 38 38
REMARK H PARENT
ROOT
ATOM      1  C   UNL     1       0.565   3.009   3.169  1.00  0.00    +0.044 C 
ATOM      2  C   UNL     1      -0.063   2.856   1.822  1.00  0.00    -0.047 C 
ATOM      3  C   UNL     1      -0.429   3.893   1.052  1.00  0.00    +0.056 C 
ATOM      4  C   UNL     1      -1.034   3.669  -0.300  1.00  0.00    +0.186 C 
ATOM      5  O   UNL     1      -0.960   4.605  -1.097  1.00  0.00    -0.289 OA
ATOM      6  C   UNL     1      -1.612   2.280  -0.479  1.00  0.00    +0.022 C 
ATOM      7  C   UNL     1      -2.770   2.020  -1.146  1.00  0.00    -0.089 C 
ATOM      8  O   UNL     1      -3.416   2.860  -1.863  1.00  0.00    -0.872 OA
ATOM      9  C   UNL     1      -3.287   0.482  -0.862  1.00  0.00    -0.032 A 
ATOM     10  C   UNL     1      -4.679   0.127  -0.762  1.00  0.00    -0.102 A 
ATOM     11  O   UNL     1      -5.718   0.902  -0.741  1.00  0.00    -0.872 OA
ATOM     12  C   UNL     1      -4.869  -1.279  -0.588  1.00  0.00    -0.016 A 
ATOM     13  C   UNL     1      -3.909  -2.356  -0.508  1.00  0.00    -0.101 A 
ATOM     14  O   UNL     1      -4.360  -3.531  -0.206  1.00  0.00    -0.872 OA
ATOM     15  C   UNL     1      -2.495  -1.979  -0.654  1.00  0.00    -0.018 A 
ATOM     16  C   UNL     1      -1.284  -2.863  -0.652  1.00  0.00    -0.017 A 
ATOM     17  C   UNL     1      -1.221  -4.342  -1.189  1.00  0.00    -0.096 C 
ATOM     18  O   UNL     1      -1.805  -4.750  -2.247  1.00  0.00    -0.872 OA
ATOM     19  C   UNL     1      -0.370  -5.107  -0.474  1.00  0.00    +0.045 C 
ATOM     20  C   UNL     1       0.597  -4.594   0.524  1.00  0.00    +0.185 C 
ATOM     21  O   UNL     1       0.922  -5.334   1.454  1.00  0.00    -0.289 OA
ATOM     22  C   UNL     1       1.090  -3.193   0.217  1.00  0.00    +0.023 A 
ATOM     23  C   UNL     1       2.467  -2.776   0.505  1.00  0.00    -0.089 A 
ATOM     24  O   UNL     1       3.329  -3.628   0.955  1.00  0.00    -0.872 OA
ATOM     25  C   UNL     1       2.809  -1.363   0.179  1.00  0.00    -0.033 A 
ATOM     26  C   UNL     1       4.163  -0.653   0.270  1.00  0.00    -0.101 A 
ATOM     27  O   UNL     1       5.272  -1.120   0.742  1.00  0.00    -0.872 OA
ATOM     28  C   UNL     1       4.240   0.673  -0.223  1.00  0.00    -0.005 A 
ATOM     29  C   UNL     1       3.177   1.356  -0.783  1.00  0.00    -0.051 A 
ATOM     30  C   UNL     1       3.341   2.718  -1.372  1.00  0.00    +0.044 C 
ATOM     31  C   UNL     1       1.951   0.712  -0.828  1.00  0.00    +0.012 A 
ATOM     32  C   UNL     1       1.688  -0.568  -0.291  1.00  0.00    -0.011 A 
ATOM     33  C   UNL     1       0.289  -1.008  -0.320  1.00  0.00    -0.001 A 
ATOM     34  C   UNL     1       0.034  -2.365  -0.279  1.00  0.00    +0.001 A 
ATOM     35  C   UNL     1      -0.903  -0.163  -0.376  1.00  0.00    -0.001 A 
ATOM     36  C   UNL     1      -0.867   1.224   0.184  1.00  0.00    -0.006 C 
ATOM     37  C   UNL     1      -0.193   1.503   1.319  1.00  0.00    +0.013 C 
ATOM     38  C   UNL     1      -2.240  -0.562  -0.666  1.00  0.00    -0.004 A 
ENDROOT
TORSDOF 0
