REMARK SMILES CCc1ccc(Cc2cc([C@@H]3O[C@H](CO)[C@@H](O)[C@H](O)[C@H]3O)ccc2Cl)nn1
REMARK SMILES IDX 8 1 9 2 10 3 22 4 23 5 24 6 25 7 7 8 6 9 3 10 4 11 27 12
REMARK SMILES IDX 5 13 26 14 2 15 1 16 11 17 12 18 20 19 13 20 18 21 16 22
REMARK SMILES IDX 21 23 14 25 15 26 19 28 17 30
REMARK H PARENT 21 24 15 27 19 29 17 31
ROOT
ATOM      1  C   UNL     1       1.245  -1.997  -0.359  1.00  0.00    -0.023 A 
ATOM      2  C   UNL     1       0.136  -1.422   0.292  1.00  0.00    +0.012 A 
ATOM      3  C   UNL     1      -1.099  -1.254  -0.358  1.00  0.00    -0.016 A 
ATOM      4  C   UNL     1      -1.215  -1.676  -1.689  1.00  0.00    +0.008 A 
ATOM      5  C   UNL     1      -0.129  -2.258  -2.345  1.00  0.00    +0.021 A 
ATOM      6  C   UNL     1       1.094  -2.417  -1.688  1.00  0.00    +0.044 A 
ATOM      7 Cl   UNL     1       2.387  -3.140  -2.573  1.00  0.00    -0.084 Cl
ENDROOT
BRANCH   1   8
ATOM      8  C   UNL     1       2.558  -2.099   0.389  1.00  0.00    +0.095 C 
BRANCH   8   9
ATOM      9  C   UNL     1       3.576  -1.046   0.029  1.00  0.00    +0.068 A 
ATOM     10  C   UNL     1       5.540   0.746  -0.585  1.00  0.00    +0.063 A 
ATOM     11  C   UNL     1       4.278   1.223  -0.265  1.00  0.00    +0.027 A 
ATOM     12  N   UNL     1       5.809  -0.576  -0.576  1.00  0.00    -0.155 NA
ATOM     13  C   UNL     1       3.279   0.311   0.052  1.00  0.00    +0.028 A 
ATOM     14  N   UNL     1       4.823  -1.475  -0.267  1.00  0.00    -0.155 NA
BRANCH  10  15
ATOM     15  C   UNL     1       6.669   1.679  -0.919  1.00  0.00    +0.055 C 
ATOM     16  C   UNL     1       7.401   2.143   0.330  1.00  0.00    +0.011 C 
ENDBRANCH  10  15
ENDBRANCH   8   9
ENDBRANCH   1   8
BRANCH   3  17
ATOM     17  C   UNL     1      -2.249  -0.582   0.379  1.00  0.00    +0.180 C 
ATOM     18  O   UNL     1      -3.486  -1.069  -0.170  1.00  0.00    -0.362 OA
ATOM     19  C   UNL     1      -2.160   0.955   0.272  1.00  0.00    +0.179 C 
ATOM     20  C   UNL     1      -4.645  -0.537   0.477  1.00  0.00    +0.176 C 
ATOM     21  C   UNL     1      -3.400   1.589   0.906  1.00  0.00    +0.177 C 
ATOM     22  C   UNL     1      -4.690   0.995   0.345  1.00  0.00    +0.177 C 
BRANCH  19  23
ATOM     23  O   UNL     1      -1.005   1.477   0.950  1.00  0.00    -0.387 OA
ATOM     24  H   UNL     1      -1.140   2.447   0.958  1.00  0.00    +0.211 HD
ENDBRANCH  19  23
BRANCH  20  25
ATOM     25  C   UNL     1      -5.879  -1.191  -0.161  1.00  0.00    +0.191 C 
BRANCH  25  26
ATOM     26  O   UNL     1      -7.082  -0.667   0.396  1.00  0.00    -0.394 OA
ATOM     27  H   UNL     1      -7.811  -1.204   0.032  1.00  0.00    +0.210 HD
ENDBRANCH  25  26
ENDBRANCH  20  25
BRANCH  21  28
ATOM     28  O   UNL     1      -3.369   3.009   0.680  1.00  0.00    -0.387 OA
ATOM     29  H   UNL     1      -4.257   3.322   0.950  1.00  0.00    +0.211 HD
ENDBRANCH  21  28
BRANCH  22  30
ATOM     30  O   UNL     1      -5.781   1.583   1.065  1.00  0.00    -0.388 OA
ATOM     31  H   UNL     1      -6.557   0.997   0.921  1.00  0.00    +0.211 HD
ENDBRANCH  22  30
ENDBRANCH   3  17
TORSDOF 9
