REMARK SMILES CN(C(=O)C(C)(C)c1cc(C(F)(F)F)cc(C(F)(F)F)c1)c1cnc(N2CC[C@H](O)C2)cc1-c1ccccc1Cl
REMARK SMILES IDX 3 1 4 2 2 3 1 4 22 5 23 6 33 7 24 8 32 9 25 10 34 11 35 12
REMARK SMILES IDX 39 13 36 14 38 15 37 16 40 17 26 18 27 19 31 20 28 21 29 22
REMARK SMILES IDX 30 23 5 25 6 26 7 27 8 28 9 29 21 30 10 31 16 32 15 33 11 34
REMARK SMILES IDX 12 35 13 36 14 37 17 38 18 39 19 40 20 41
REMARK H PARENT 30 24
ROOT
ATOM      1  C   UNL     1      -1.134  -0.040   1.604  1.00  0.00    +0.236 C 
ATOM      2  O   UNL     1      -0.567  -0.801   2.401  1.00  0.00    -0.274 OA
ENDROOT
BRANCH   1   3
ATOM      3  N   UNL     1      -0.471   0.426   0.459  1.00  0.00    -0.313 N 
ATOM      4  C   UNL     1      -1.049   1.331  -0.534  1.00  0.00    +0.153 C 
BRANCH   3   5
ATOM      5  C   UNL     1       0.864  -0.052   0.173  1.00  0.00    +0.070 A 
ATOM      6  C   UNL     1       1.154  -1.412   0.274  1.00  0.00    +0.140 A 
ATOM      7  C   UNL     1       1.918   0.775  -0.260  1.00  0.00    +0.012 A 
ATOM      8  N   UNL     1       2.339  -1.988  -0.048  1.00  0.00    -0.237 NA
ATOM      9  C   UNL     1       3.153   0.169  -0.583  1.00  0.00    +0.058 A 
ATOM     10  C   UNL     1       3.343  -1.206  -0.482  1.00  0.00    +0.129 A 
BRANCH   7  11
ATOM     11  C   UNL     1       1.856   2.251  -0.268  1.00  0.00    +0.003 A 
ATOM     12  C   UNL     1       1.781   2.932   0.964  1.00  0.00    +0.010 A 
ATOM     13  C   UNL     1       1.897   3.025  -1.445  1.00  0.00    +0.048 A 
ATOM     14  C   UNL     1       1.736   4.327   1.020  1.00  0.00    +0.001 A 
ATOM     15  C   UNL     1       1.852   4.423  -1.386  1.00  0.00    +0.021 A 
ATOM     16  C   UNL     1       1.771   5.072  -0.155  1.00  0.00    +0.002 A 
ATOM     17 Cl   UNL     1       1.972   2.300  -3.015  1.00  0.00    -0.084 Cl
ENDBRANCH   7  11
BRANCH  10  18
ATOM     18  N   UNL     1       4.529  -1.807  -0.796  1.00  0.00    -0.354 N 
ATOM     19  C   UNL     1       4.656  -3.260  -0.773  1.00  0.00    +0.121 C 
ATOM     20  C   UNL     1       5.746  -1.149  -1.252  1.00  0.00    +0.149 C 
ATOM     21  C   UNL     1       6.017  -3.524  -1.422  1.00  0.00    +0.055 C 
ATOM     22  C   UNL     1       6.804  -2.256  -1.122  1.00  0.00    +0.135 C 
BRANCH  22  23
ATOM     23  O   UNL     1       7.319  -2.313   0.211  1.00  0.00    -0.391 OA
ATOM     24  H   UNL     1       6.554  -2.229   0.812  1.00  0.00    +0.211 HD
ENDBRANCH  22  23
ENDBRANCH  10  18
ENDBRANCH   3   5
ENDBRANCH   1   3
BRANCH   1  25
ATOM     25  C   UNL     1      -2.598   0.416   1.924  1.00  0.00    +0.069 C 
ATOM     26  C   UNL     1      -2.617   1.948   2.131  1.00  0.00    +0.027 C 
ATOM     27  C   UNL     1      -3.008  -0.197   3.294  1.00  0.00    +0.027 C 
BRANCH  25  28
ATOM     28  C   UNL     1      -3.623  -0.127   0.909  1.00  0.00    -0.032 A 
ATOM     29  C   UNL     1      -4.737   0.627   0.499  1.00  0.00    +0.018 A 
ATOM     30  C   UNL     1      -3.489  -1.433   0.398  1.00  0.00    +0.018 A 
ATOM     31  C   UNL     1      -5.668   0.121  -0.426  1.00  0.00    +0.056 A 
ATOM     32  C   UNL     1      -4.416  -1.970  -0.512  1.00  0.00    +0.056 A 
ATOM     33  C   UNL     1      -5.497  -1.178  -0.924  1.00  0.00    +0.026 A 
BRANCH  31  34
ATOM     34  C   UNL     1      -6.858   0.956  -0.841  1.00  0.00    +0.416 C 
ATOM     35  F   UNL     1      -7.360   0.607  -2.057  1.00  0.00    -0.166 F 
ATOM     36  F   UNL     1      -7.892   0.856   0.038  1.00  0.00    -0.166 F 
ATOM     37  F   UNL     1      -6.565   2.284  -0.927  1.00  0.00    -0.166 F 
ENDBRANCH  31  34
BRANCH  32  38
ATOM     38  C   UNL     1      -4.229  -3.366  -1.061  1.00  0.00    +0.416 C 
ATOM     39  F   UNL     1      -3.441  -3.378  -2.171  1.00  0.00    -0.166 F 
ATOM     40  F   UNL     1      -3.645  -4.216  -0.173  1.00  0.00    -0.166 F 
ATOM     41  F   UNL     1      -5.402  -3.954  -1.426  1.00  0.00    -0.166 F 
ENDBRANCH  32  38
ENDBRANCH  25  28
ENDBRANCH   1  25
TORSDOF 9
