REMARK SMILES [NH3+]CCCS(=O)(=O)Nc1ccc(Nc2c3ccccc3nc3ccccc23)cc1
REMARK SMILES IDX 5 1 6 2 7 3 4 4 3 5 2 6 1 7 8 11 9 13 10 14 29 15 11 16
REMARK SMILES IDX 28 17 12 18 13 19 14 21 15 22 27 23 16 24 20 25 26 26 22 27
REMARK SMILES IDX 17 28 19 29 21 30 25 31 23 32 18 33 24 34
REMARK H PARENT 1 8 1 9 1 10 8 12 13 20
ROOT
ATOM      1  S   UNL     1       3.549  -2.348   1.661  1.00  0.00    +0.232 S 
ATOM      2  O   UNL     1       2.836  -1.675   2.733  1.00  0.00    -0.207 OA
ATOM      3  O   UNL     1       4.586  -3.296   1.997  1.00  0.00    -0.207 OA
ENDROOT
BRANCH   1   4
ATOM      4  C   UNL     1       4.325  -1.061   0.696  1.00  0.00    +0.166 C 
BRANCH   4   5
ATOM      5  C   UNL     1       5.412  -0.326   1.491  1.00  0.00    +0.079 C 
BRANCH   5   6
ATOM      6  C   UNL     1       4.913   0.593   2.609  1.00  0.00    +0.259 C 
BRANCH   6   7
ATOM      7  N   UNL     1       4.562  -0.148   3.839  1.00  0.00    -0.358 N 
ATOM      8  H   UNL     1       4.371   0.485   4.626  1.00  0.00    +0.344 HD
ATOM      9  H   UNL     1       5.288  -0.810   4.146  1.00  0.00    +0.344 HD
ATOM     10  H   UNL     1       3.687  -0.704   3.717  1.00  0.00    +0.344 HD
ENDBRANCH   6   7
ENDBRANCH   5   6
ENDBRANCH   4   5
ENDBRANCH   1   4
BRANCH   1  11
ATOM     11  N   UNL     1       2.501  -3.084   0.603  1.00  0.00    -0.284 N 
ATOM     12  H   UNL     1       2.907  -3.863   0.079  1.00  0.00    +0.180 HD
BRANCH  11  13
ATOM     13  C   UNL     1       1.478  -2.335  -0.045  1.00  0.00    +0.049 A 
ATOM     14  C   UNL     1       0.532  -1.614   0.676  1.00  0.00    +0.029 A 
ATOM     15  C   UNL     1       1.433  -2.331  -1.439  1.00  0.00    +0.029 A 
ATOM     16  C   UNL     1      -0.437  -0.863   0.004  1.00  0.00    +0.028 A 
ATOM     17  C   UNL     1       0.455  -1.584  -2.106  1.00  0.00    +0.028 A 
ATOM     18  C   UNL     1      -0.488  -0.832  -1.395  1.00  0.00    +0.039 A 
BRANCH  18  19
ATOM     19  N   UNL     1      -1.459  -0.101  -2.095  1.00  0.00    -0.354 N 
ATOM     20  H   UNL     1      -1.375  -0.057  -3.104  1.00  0.00    +0.167 HD
BRANCH  19  21
ATOM     21  C   UNL     1      -2.539   0.664  -1.580  1.00  0.00    +0.057 A 
ATOM     22  C   UNL     1      -2.498   2.078  -1.688  1.00  0.00    +0.024 A 
ATOM     23  C   UNL     1      -3.680   0.029  -1.022  1.00  0.00    +0.024 A 
ATOM     24  C   UNL     1      -1.419   2.796  -2.261  1.00  0.00    +0.012 A 
ATOM     25  C   UNL     1      -3.595   2.795  -1.177  1.00  0.00    +0.073 A 
ATOM     26  C   UNL     1      -3.848  -1.376  -0.934  1.00  0.00    +0.012 A 
ATOM     27  C   UNL     1      -4.707   0.862  -0.543  1.00  0.00    +0.073 A 
ATOM     28  C   UNL     1      -1.435   4.188  -2.334  1.00  0.00    +0.001 A 
ATOM     29  C   UNL     1      -3.587   4.181  -1.259  1.00  0.00    +0.029 A 
ATOM     30  N   UNL     1      -4.653   2.200  -0.611  1.00  0.00    -0.248 NA
ATOM     31  C   UNL     1      -4.992  -1.935  -0.367  1.00  0.00    +0.001 A 
ATOM     32  C   UNL     1      -5.836   0.282   0.021  1.00  0.00    +0.029 A 
ATOM     33  C   UNL     1      -2.524   4.883  -1.832  1.00  0.00    +0.002 A 
ATOM     34  C   UNL     1      -5.989  -1.102   0.116  1.00  0.00    +0.002 A 
ENDBRANCH  19  21
ENDBRANCH  18  19
ENDBRANCH  11  13
ENDBRANCH   1  11
TORSDOF 8
