REMARK SMILES CCCn1ncc2c(N)n(C)c(=O)nc21
REMARK SMILES IDX 4 1 5 2 6 3 7 4 8 5 10 6 11 7 12 8 13 9 14 10 15 11 3 12
REMARK SMILES IDX 2 13 1 14 9 15
REMARK H PARENT 9 16 9 17
ROOT
ATOM      1  N   UNL     1       1.218   1.038  -0.553  1.00  0.00    -0.247 N 
ATOM      2  N   UNL     1       1.017   2.255   0.113  1.00  0.00    -0.179 NA
ATOM      3  C   UNL     1      -0.216   2.203   0.547  1.00  0.00    +0.149 C 
ATOM      4  C   UNL     1      -0.898   0.950   0.197  1.00  0.00    +0.080 C 
ATOM      5  C   UNL     1      -2.101   0.407   0.387  1.00  0.00    +0.120 C 
ATOM      6  N   UNL     1      -2.292  -0.865  -0.152  1.00  0.00    -0.281 N 
ATOM      7  C   UNL     1      -3.575  -1.535   0.007  1.00  0.00    +0.157 C 
ATOM      8  C   UNL     1      -1.282  -1.560  -0.863  1.00  0.00    +0.350 C 
ATOM      9  O   UNL     1      -1.488  -2.681  -1.322  1.00  0.00    -0.246 OA
ATOM     10  N   UNL     1      -0.052  -0.967  -1.040  1.00  0.00    -0.173 NA
ATOM     11  C   UNL     1       0.116   0.201  -0.543  1.00  0.00    +0.167 C 
ENDROOT
BRANCH   1  12
ATOM     12  C   UNL     1       2.507   0.740  -1.140  1.00  0.00    +0.146 C 
BRANCH  12  13
ATOM     13  C   UNL     1       3.527   0.331  -0.078  1.00  0.00    +0.020 C 
ATOM     14  C   UNL     1       3.204  -1.002   0.580  1.00  0.00    +0.006 C 
ENDBRANCH  12  13
ENDBRANCH   1  12
BRANCH   5  15
ATOM     15  N   UNL     1      -3.087   1.065   1.074  1.00  0.00    -0.384 N 
ATOM     16  H   UNL     1      -2.933   1.988   1.459  1.00  0.00    +0.158 HD
ATOM     17  H   UNL     1      -3.992   0.636   1.208  1.00  0.00    +0.158 HD
ENDBRANCH   5  15
TORSDOF 3
