REMARK SMILES COc1cc2c3cc1Oc1cc(ccc1[O-])C[C@@H]1c4c(cc(OC)c([O-])c4Oc4ccc(cc4)C[C@@H]3[NH+](C)CC2)CC[N+]1(C)C
REMARK SMILES IDX 29 1 30 2 31 3 32 4 33 5 34 6 35 7 36 8 3 9 4 10 8 11 5 12
REMARK SMILES IDX 7 13 6 14 40 15 39 16 37 17 38 18 2 20 1 21 9 22 10 23 11 24
REMARK SMILES IDX 15 25 12 26 14 27 13 28 16 29 17 30 28 32 27 33 25 34 19 35
REMARK SMILES IDX 22 36 18 37 20 38 21 39 43 40 41 41 42 42 26 43 44 44 45 45
REMARK SMILES IDX 23 47 24 48
REMARK H PARENT 37 19
REMARK Flexibility Score:  140.900
ROOT
ATOM      1  C   UNL     1       1.069   1.483   1.935  1.00  0.00    +0.127 A 
ATOM      2  C   UNL     1       0.295   0.670   2.762  1.00  0.00    +0.047 A 
ATOM      3  C   UNL     1      -1.090   0.595   2.596  1.00  0.00    +0.008 A 
ATOM      4  C   UNL     1      -1.738   1.368   1.622  1.00  0.00    -0.041 A 
ATOM      5  C   UNL     1      -0.962   2.241   0.846  1.00  0.00    +0.008 A 
ATOM      6  C   UNL     1       0.431   2.282   0.989  1.00  0.00    +0.047 A 
ENDROOT
BRANCH   4   7
ATOM      7  C   UNL     1      -3.246   1.285   1.516  1.00  0.00    +0.105 C 
BRANCH   7   8
ATOM      8  C   UNL     1      -3.851   1.376   0.081  1.00  0.00    +0.219 C 
ATOM      9  C   UNL     1      -4.455  -2.569  -1.647  1.00  0.00    +0.161 A 
ATOM     10  C   UNL     1      -5.508  -1.649  -1.628  1.00  0.00    +0.055 A 
ATOM     11  C   UNL     1      -3.206  -2.200  -1.147  1.00  0.00    +0.169 A 
ATOM     12  C   UNL     1      -5.342  -0.366  -1.081  1.00  0.00    -0.029 A 
ATOM     13  C   UNL     1      -3.044  -0.913  -0.610  1.00  0.00    +0.061 A 
ATOM     14  C   UNL     1      -4.103   0.005  -0.533  1.00  0.00    +0.017 A 
ATOM     15  C   UNL     1      -6.506   0.580  -1.056  1.00  0.00    +0.097 C 
ATOM     16  C   UNL     1      -6.030   2.024  -1.035  1.00  0.00    +0.267 C 
ATOM     17  N   UNL     1      -5.125   2.252   0.152  1.00  0.00    -0.331 N 
ATOM     18  C   UNL     1      -4.807   3.715   0.303  1.00  0.00    +0.333 C 
ATOM     19  H   UNL     1      -5.632   1.938   0.989  1.00  0.00    +0.348 HD
BRANCH   9  20
ATOM     20  O   UNL     1      -4.745  -3.779  -2.225  1.00  0.00    -0.493 OA
ATOM     21  C   UNL     1      -4.426  -4.879  -1.365  1.00  0.00    +0.278 C 
ENDBRANCH   9  20
BRANCH  11  22
ATOM     22  O   UNL     1      -2.151  -3.089  -1.257  1.00  0.00    -0.454 OA
BRANCH  22  23
ATOM     23  C   UNL     1      -1.150  -2.970  -0.300  1.00  0.00    +0.120 A 
ATOM     24  C   UNL     1      -0.000  -2.274  -0.714  1.00  0.00    +0.050 A 
ATOM     25  C   UNL     1      -1.327  -3.470   1.011  1.00  0.00    -0.065 A 
ATOM     26  C   UNL     1       1.005  -1.944   0.199  1.00  0.00    -0.038 A 
ATOM     27  C   UNL     1      -0.262  -3.170   1.877  1.00  0.00    -0.004 A 
ATOM     28  C   UNL     1       0.859  -2.411   1.503  1.00  0.00    +0.003 A 
ATOM     29  O   UNL     1      -2.349  -4.113   1.425  1.00  0.00    -0.870 OA
BRANCH  26  30
ATOM     30  C   UNL     1       2.085  -0.994  -0.264  1.00  0.00    +0.106 CG0
ATOM     31  G   UNL     1       3.342  -0.757   0.627  1.00  0.00    +0.000 G0
ENDBRANCH  26  30
ENDBRANCH  22  23
ENDBRANCH  11  22
ENDBRANCH   7   8
ENDBRANCH   4   7
BRANCH   1  32
ATOM     32  O   UNL     1       2.428   1.423   2.156  1.00  0.00    -0.457 OA
BRANCH  32  33
ATOM     33  C   UNL     1       3.300   1.750   1.113  1.00  0.00    +0.132 A 
ATOM     34  C   UNL     1       3.711   3.112   0.955  1.00  0.00    -0.021 A 
ATOM     35  C   UNL     1       3.847   0.656   0.386  1.00  0.00    +0.055 A 
ATOM     36  C   UNL     1       4.683   3.303  -0.066  1.00  0.00    +0.115 A 
ATOM     37  C   UNL     1       3.342  -0.757   0.627  1.00  0.00    +0.224 CG0
ATOM     38  C   UNL     1       4.843   0.902  -0.559  1.00  0.00    -0.026 A 
ATOM     39  C   UNL     1       5.228   2.222  -0.788  1.00  0.00    +0.050 A 
ATOM     40  N   UNL     1       4.477  -1.831   0.367  1.00  0.00    -0.322 N 
ATOM     41  C   UNL     1       5.608  -0.198  -1.237  1.00  0.00    +0.097 C 
ATOM     42  C   UNL     1       5.078  -1.613  -1.019  1.00  0.00    +0.268 C 
ATOM     43  O   UNL     1       3.227   4.041   1.693  1.00  0.00    -0.867 OA
ATOM     44  C   UNL     1       3.939  -3.255   0.461  1.00  0.00    +0.334 C 
ATOM     45  C   UNL     1       5.540  -1.677   1.460  1.00  0.00    +0.334 C 
ATOM     46  G   UNL     1       2.085  -0.994  -0.264  1.00  0.00    +0.000 G0
BRANCH  36  47
ATOM     47  O   UNL     1       5.262   4.482  -0.494  1.00  0.00    -0.497 OA
ATOM     48  C   UNL     1       4.871   5.697   0.126  1.00  0.00    +0.278 C 
ENDBRANCH  36  47
ENDBRANCH  32  33
ENDBRANCH   1  32
TORSDOF 2
