REMARK SMILES Cc1ccc(C(=O)Nc2cccc(C(F)(F)F)c2)cc1Nc1nc2ccccc2n1-c1ncnc(N)c1C
REMARK SMILES IDX 1 1 2 2 3 3 4 4 5 5 19 6 20 7 21 8 22 10 23 11 30 12 24 13
REMARK SMILES IDX 29 14 25 15 28 16 26 17 27 18 31 19 32 20 37 21 33 22 35 23
REMARK SMILES IDX 34 24 38 25 36 26 6 29 7 30 8 31 9 33 10 34 18 35 11 36
REMARK SMILES IDX 13 37 12 38 14 39 15 40 16 41 17 42
REMARK H PARENT 21 9 36 27 36 28 8 32
ROOT
ATOM      1  C   UNL     1      -1.471   4.031  -2.199  1.00  0.00    +0.046 C 
ATOM      2  C   UNL     1      -0.202   3.526  -1.563  1.00  0.00    -0.027 A 
ATOM      3  C   UNL     1       0.954   4.323  -1.654  1.00  0.00    +0.006 A 
ATOM      4  C   UNL     1       2.163   3.893  -1.109  1.00  0.00    +0.014 A 
ATOM      5  C   UNL     1       2.230   2.660  -0.461  1.00  0.00    +0.042 A 
ATOM      6  C   UNL     1       1.072   1.883  -0.331  1.00  0.00    +0.040 A 
ATOM      7  C   UNL     1      -0.153   2.285  -0.886  1.00  0.00    +0.045 A 
ENDROOT
BRANCH   7   8
ATOM      8  N   UNL     1      -1.299   1.464  -0.821  1.00  0.00    -0.325 N 
ATOM      9  H   UNL     1      -2.171   1.930  -1.066  1.00  0.00    +0.170 HD
BRANCH   8  10
ATOM     10  C   UNL     1      -1.373   0.136  -0.542  1.00  0.00    +0.214 A 
ATOM     11  N   UNL     1      -0.388  -0.721  -0.361  1.00  0.00    -0.212 NA
ATOM     12  N   UNL     1      -2.612  -0.493  -0.369  1.00  0.00    -0.262 N 
ATOM     13  C   UNL     1      -0.972  -1.947  -0.220  1.00  0.00    +0.091 A 
ATOM     14  C   UNL     1      -2.359  -1.857  -0.279  1.00  0.00    +0.076 A 
ATOM     15  C   UNL     1      -0.359  -3.201  -0.072  1.00  0.00    +0.031 A 
ATOM     16  C   UNL     1      -3.172  -3.004  -0.299  1.00  0.00    +0.029 A 
ATOM     17  C   UNL     1      -1.160  -4.347  -0.036  1.00  0.00    +0.002 A 
ATOM     18  C   UNL     1      -2.544  -4.248  -0.162  1.00  0.00    +0.002 A 
BRANCH  12  19
ATOM     19  C   UNL     1      -3.881   0.166  -0.376  1.00  0.00    +0.148 A 
ATOM     20  N   UNL     1      -4.006   1.175  -1.277  1.00  0.00    -0.218 NA
ATOM     21  C   UNL     1      -4.904  -0.187   0.502  1.00  0.00    +0.035 A 
ATOM     22  C   UNL     1      -5.217   1.730  -1.378  1.00  0.00    +0.226 A 
ATOM     23  C   UNL     1      -6.121   0.447   0.269  1.00  0.00    +0.131 A 
ATOM     24  N   UNL     1      -6.289   1.397  -0.659  1.00  0.00    -0.219 NA
ATOM     25  C   UNL     1      -4.749  -1.079   1.699  1.00  0.00    +0.052 C 
BRANCH  23  26
ATOM     26  N   UNL     1      -7.237   0.197   1.041  1.00  0.00    -0.383 N 
ATOM     27  H   UNL     1      -8.035   0.763   0.776  1.00  0.00    +0.158 HD
ATOM     28  H   UNL     1      -7.428  -0.747   1.341  1.00  0.00    +0.158 HD
ENDBRANCH  23  26
ENDBRANCH  12  19
ENDBRANCH   8  10
ENDBRANCH   7   8
BRANCH   5  29
ATOM     29  C   UNL     1       3.540   2.204   0.089  1.00  0.00    +0.255 C 
ATOM     30  O   UNL     1       4.336   3.052   0.475  1.00  0.00    -0.269 OA
ATOM     31  N   UNL     1       3.733   0.834   0.067  1.00  0.00    -0.322 N 
ATOM     32  H   UNL     1       3.012   0.278  -0.378  1.00  0.00    +0.170 HD
BRANCH  31  33
ATOM     33  C   UNL     1       4.837   0.112   0.564  1.00  0.00    +0.042 A 
ATOM     34  C   UNL     1       5.929   0.696   1.206  1.00  0.00    +0.026 A 
ATOM     35  C   UNL     1       4.812  -1.280   0.401  1.00  0.00    +0.039 A 
ATOM     36  C   UNL     1       6.983  -0.094   1.672  1.00  0.00    +0.003 A 
ATOM     37  C   UNL     1       5.861  -2.087   0.875  1.00  0.00    +0.058 A 
ATOM     38  C   UNL     1       6.953  -1.477   1.506  1.00  0.00    +0.013 A 
BRANCH  37  39
ATOM     39  C   UNL     1       5.825  -3.580   0.673  1.00  0.00    +0.416 C 
ATOM     40  F   UNL     1       4.559  -4.087   0.665  1.00  0.00    -0.166 F 
ATOM     41  F   UNL     1       6.493  -4.271   1.639  1.00  0.00    -0.166 F 
ATOM     42  F   UNL     1       6.384  -3.957  -0.510  1.00  0.00    -0.166 F 
ENDBRANCH  37  39
ENDBRANCH  31  33
ENDBRANCH   5  29
TORSDOF 7
