REMARK SMILES COc1ccc(C(F)(F)F)cc1NC(=O)CNc1cccc(-c2cn3ccnc3c(NCc3ccncc3)n2)c1
REMARK SMILES IDX 16 1 14 2 13 3 15 4 12 6 3 7 4 8 5 9 11 10 6 11 2 12 1 13
REMARK SMILES IDX 7 14 8 15 9 16 10 17 17 18 18 20 19 21 40 22 20 23 22 24
REMARK SMILES IDX 21 25 23 26 24 27 39 28 25 29 30 30 26 31 29 32 31 33 27 34
REMARK SMILES IDX 28 35 32 37 33 38 34 39 38 40 35 41 37 42 36 43
REMARK H PARENT 13 5 17 19 31 36
ROOT
ATOM      1  C   UNL     1       3.116  -4.086  -1.800  1.00  0.00    +0.213 C 
ENDROOT
BRANCH   1   2
ATOM      2  C   UNL     1       3.920  -3.578  -0.591  1.00  0.00    +0.243 C 
ATOM      3  N   UNL     1       3.138  -2.950   0.355  1.00  0.00    -0.321 N 
ATOM      4  O   UNL     1       5.132  -3.767  -0.518  1.00  0.00    -0.273 OA
ATOM      5  H   UNL     1       2.152  -2.863   0.108  1.00  0.00    +0.170 HD
BRANCH   3   6
ATOM      6  C   UNL     1       3.509  -2.362   1.575  1.00  0.00    +0.084 A 
ATOM      7  C   UNL     1       2.500  -1.714   2.306  1.00  0.00    +0.142 A 
ATOM      8  C   UNL     1       2.770  -1.133   3.544  1.00  0.00    +0.049 A 
ATOM      9  C   UNL     1       4.071  -1.159   4.048  1.00  0.00    +0.017 A 
ATOM     10  C   UNL     1       4.808  -2.381   2.085  1.00  0.00    +0.043 A 
ATOM     11  C   UNL     1       5.103  -1.774   3.320  1.00  0.00    +0.058 A 
BRANCH   7  12
ATOM     12  O   UNL     1       1.215  -1.720   1.816  1.00  0.00    -0.495 OA
ATOM     13  C   UNL     1       0.848  -0.419   1.351  1.00  0.00    +0.278 C 
ENDBRANCH   7  12
BRANCH  11  14
ATOM     14  C   UNL     1       6.511  -1.823   3.861  1.00  0.00    +0.416 C 
ATOM     15  F   UNL     1       6.715  -0.974   4.908  1.00  0.00    -0.166 F 
ATOM     16  F   UNL     1       7.449  -1.491   2.931  1.00  0.00    -0.166 F 
ATOM     17  F   UNL     1       6.851  -3.060   4.316  1.00  0.00    -0.166 F 
ENDBRANCH  11  14
ENDBRANCH   3   6
ENDBRANCH   1   2
BRANCH   1  18
ATOM     18  N   UNL     1       1.739  -3.577  -1.847  1.00  0.00    -0.376 N 
ATOM     19  H   UNL     1       1.003  -4.265  -1.729  1.00  0.00    +0.161 HD
BRANCH  18  20
ATOM     20  C   UNL     1       1.379  -2.298  -2.232  1.00  0.00    +0.035 A 
ATOM     21  C   UNL     1       2.299  -1.325  -2.634  1.00  0.00    +0.026 A 
ATOM     22  C   UNL     1       0.033  -1.917  -2.121  1.00  0.00    +0.036 A 
ATOM     23  C   UNL     1       1.893  -0.019  -2.925  1.00  0.00    +0.003 A 
ATOM     24  C   UNL     1      -0.396  -0.609  -2.411  1.00  0.00    +0.004 A 
ATOM     25  C   UNL     1       0.553   0.338  -2.808  1.00  0.00    +0.010 A 
BRANCH  24  26
ATOM     26  C   UNL     1      -1.810  -0.208  -2.255  1.00  0.00    +0.089 C 
ATOM     27  C   UNL     1      -2.777  -0.943  -2.842  1.00  0.00    +0.122 C 
ATOM     28  N   UNL     1      -2.066   0.942  -1.515  1.00  0.00    -0.226 NA
ATOM     29  N   UNL     1      -4.084  -0.536  -2.687  1.00  0.00    -0.302 N 
ATOM     30  C   UNL     1      -3.307   1.345  -1.355  1.00  0.00    +0.170 C 
ATOM     31  C   UNL     1      -5.270  -1.046  -3.141  1.00  0.00    +0.113 A 
ATOM     32  C   UNL     1      -4.384   0.582  -1.961  1.00  0.00    +0.180 A 
ATOM     33  N   UNL     1      -3.582   2.474  -0.625  1.00  0.00    -0.363 N 
ATOM     34  C   UNL     1      -6.237  -0.193  -2.651  1.00  0.00    +0.132 A 
ATOM     35  N   UNL     1      -5.678   0.825  -1.913  1.00  0.00    -0.234 NA
ATOM     36  H   UNL     1      -4.559   2.739  -0.540  1.00  0.00    +0.162 HD
BRANCH  33  37
ATOM     37  C   UNL     1      -2.584   3.293   0.006  1.00  0.00    +0.150 C 
BRANCH  37  38
ATOM     38  C   UNL     1      -3.251   4.431   0.734  1.00  0.00    -0.026 A 
ATOM     39  C   UNL     1      -3.487   5.650   0.092  1.00  0.00    +0.025 A 
ATOM     40  C   UNL     1      -3.694   4.275   2.051  1.00  0.00    +0.025 A 
ATOM     41  C   UNL     1      -4.127   6.658   0.795  1.00  0.00    +0.111 A 
ATOM     42  C   UNL     1      -4.325   5.343   2.669  1.00  0.00    +0.111 A 
ATOM     43  N   UNL     1      -4.548   6.532   2.072  1.00  0.00    -0.265 NA
ENDBRANCH  37  38
ENDBRANCH  33  37
ENDBRANCH  24  26
ENDBRANCH  18  20
ENDBRANCH   1  18
TORSDOF 9
