REMARK SMILES O=C1C[NH+](c2ccc(Cl)c([N+](=O)[O-])c2)NO1
REMARK SMILES IDX 5 1 6 2 7 3 8 4 9 5 10 6 14 7 4 8 1 9 2 10 3 11 16 12 15 13
REMARK SMILES IDX 11 16 12 17 13 18
REMARK H PARENT 4 14 15 15
ROOT
ATOM      1  C   UNL     1      -0.066  -0.181  -0.479  1.00  0.00    +0.160 A 
ATOM      2  C   UNL     1       0.496  -1.071  -1.403  1.00  0.00    +0.072 A 
ATOM      3  C   UNL     1       1.888  -1.240  -1.468  1.00  0.00    +0.034 A 
ATOM      4  C   UNL     1       2.733  -0.527  -0.612  1.00  0.00    +0.119 A 
ATOM      5 Cl   UNL     1       4.431  -0.756  -0.771  1.00  0.00    -0.077 Cl
ATOM      6  C   UNL     1       2.156   0.347   0.305  1.00  0.00    +0.293 A 
ATOM      7  C   UNL     1       0.765   0.535   0.386  1.00  0.00    +0.157 A 
ENDROOT
BRANCH   1   8
ATOM      8  N   UNL     1      -1.532  -0.035  -0.453  1.00  0.00    -0.182 N 
ATOM      9  O   UNL     1      -4.226   0.033   1.879  1.00  0.00    -0.243 OA
ATOM     10  C   UNL     1      -3.314   0.270   1.108  1.00  0.00    +0.386 C 
ATOM     11  C   UNL     1      -2.184  -0.657   0.755  1.00  0.00    +0.418 C 
ATOM     12  O   UNL     1      -3.151   1.437   0.409  1.00  0.00    -0.318 OA
ATOM     13  N   UNL     1      -1.907   1.326  -0.358  1.00  0.00    +0.014 NA
ATOM     14  H   UNL     1      -1.930  -0.460  -1.308  1.00  0.00    +0.381 HD
ATOM     15  H   UNL     1      -2.180   1.760  -1.254  1.00  0.00    +0.239 HD
ENDBRANCH   1   8
BRANCH   6  16
ATOM     16  N   UNL     1       2.980   1.104   1.216  1.00  0.00    +0.064 N 
ATOM     17  O   UNL     1       3.507   0.478   2.140  1.00  0.00    -0.258 OA
ATOM     18  O   UNL     1       3.007   2.327   1.040  1.00  0.00    -0.258 OA
ENDBRANCH   6  16
TORSDOF 2
