REMARK SMILES O=C(c1ccc(-c2ccccc2)cc1)[NH+]1CC[NH+](C(=O)c2ccc3cc[nH]c3c2)CC1
REMARK SMILES IDX 15 1 16 2 17 3 18 4 30 5 31 6 2 9 1 10 3 11 4 12 14 13 5 14
REMARK SMILES IDX 13 15 6 16 7 17 8 18 12 19 9 20 11 21 10 22 19 23 20 24
REMARK SMILES IDX 21 25 22 26 29 27 23 28 28 29 24 30 27 31 25 32 26 33
REMARK H PARENT 15 7 18 8 27 34
ROOT
ATOM      1  N   UNL     1      -0.155   0.215   0.555  1.00  0.00    -0.258 N 
ATOM      2  C   UNL     1       0.516   1.322  -0.230  1.00  0.00    +0.333 C 
ATOM      3  C   UNL     1       1.579   0.795  -1.233  1.00  0.00    +0.333 C 
ATOM      4  N   UNL     1       2.553  -0.193  -0.616  1.00  0.00    -0.258 N 
ATOM      5  C   UNL     1       1.884  -1.300   0.171  1.00  0.00    +0.333 C 
ATOM      6  C   UNL     1       0.819  -0.774   1.173  1.00  0.00    +0.333 C 
ATOM      7  H   UNL     1      -0.651   0.644   1.344  1.00  0.00    +0.357 HD
ATOM      8  H   UNL     1       3.054  -0.620  -1.403  1.00  0.00    +0.357 HD
ENDROOT
BRANCH   1   9
ATOM      9  C   UNL     1      -1.188  -0.467  -0.252  1.00  0.00    +0.344 C 
ATOM     10  O   UNL     1      -0.709  -1.151  -1.137  1.00  0.00    -0.226 OA
BRANCH   9  11
ATOM     11  C   UNL     1      -2.644  -0.329  -0.001  1.00  0.00    +0.079 A 
ATOM     12  C   UNL     1      -3.176   0.687   0.799  1.00  0.00    +0.019 A 
ATOM     13  C   UNL     1      -3.503  -1.253  -0.608  1.00  0.00    +0.019 A 
ATOM     14  C   UNL     1      -4.561   0.760   0.999  1.00  0.00    +0.010 A 
ATOM     15  C   UNL     1      -4.884  -1.170  -0.402  1.00  0.00    +0.010 A 
ATOM     16  C   UNL     1      -5.436  -0.165   0.406  1.00  0.00    -0.018 A 
BRANCH  16  17
ATOM     17  C   UNL     1      -6.890  -0.076   0.619  1.00  0.00    -0.018 A 
ATOM     18  C   UNL     1      -7.778  -0.018  -0.468  1.00  0.00    +0.009 A 
ATOM     19  C   UNL     1      -7.431  -0.047   1.916  1.00  0.00    +0.009 A 
ATOM     20  C   UNL     1      -9.158   0.068  -0.266  1.00  0.00    +0.001 A 
ATOM     21  C   UNL     1      -8.812   0.038   2.118  1.00  0.00    +0.001 A 
ATOM     22  C   UNL     1      -9.674   0.096   1.026  1.00  0.00    +0.000 A 
ENDBRANCH  16  17
ENDBRANCH   9  11
ENDBRANCH   1   9
BRANCH   4  23
ATOM     23  C   UNL     1       3.583   0.492   0.192  1.00  0.00    +0.344 C 
ATOM     24  O   UNL     1       3.101   1.158   1.089  1.00  0.00    -0.226 OA
BRANCH  23  25
ATOM     25  C   UNL     1       5.039   0.386  -0.080  1.00  0.00    +0.081 A 
ATOM     26  C   UNL     1       5.869   1.358   0.492  1.00  0.00    +0.019 A 
ATOM     27  C   UNL     1       5.573  -0.650  -0.869  1.00  0.00    +0.044 A 
ATOM     28  C   UNL     1       7.250   1.335   0.276  1.00  0.00    +0.011 A 
ATOM     29  C   UNL     1       6.964  -0.650  -1.069  1.00  0.00    +0.046 A 
ATOM     30  C   UNL     1       7.806   0.318  -0.519  1.00  0.00    -0.001 A 
ATOM     31  N   UNL     1       7.768  -1.521  -1.779  1.00  0.00    -0.361 N 
ATOM     32  C   UNL     1       9.131   0.009  -0.927  1.00  0.00    +0.028 A 
ATOM     33  C   UNL     1       9.075  -1.125  -1.701  1.00  0.00    +0.083 A 
ATOM     34  H   UNL     1       7.453  -2.337  -2.288  1.00  0.00    +0.166 HD
ENDBRANCH  23  25
ENDBRANCH   4  23
TORSDOF 5
