REMARK SMILES [NH3+]C[C@H]1CC[C@H](c2c[n-]cn2)O1
REMARK SMILES IDX 2 1 1 2 3 6 4 7 12 8 5 9 6 10 7 11 8 12 11 13 9 14 10 15
REMARK H PARENT 1 3 1 4 1 5
ROOT
ATOM      1  C   UNL     1      -1.788   0.989  -1.085  1.00  0.00    +0.291 C 
ENDROOT
BRANCH   1   2
ATOM      2  N   UNL     1      -0.516   1.509  -1.718  1.00  0.00    -0.355 N 
ATOM      3  H   UNL     1      -0.118   0.776  -2.321  1.00  0.00    +0.344 HD
ATOM      4  H   UNL     1      -0.514   2.419  -2.169  1.00  0.00    +0.344 HD
ATOM      5  H   UNL     1       0.284   1.489  -1.000  1.00  0.00    +0.344 HD
ENDBRANCH   1   2
BRANCH   1   6
ATOM      6  C   UNL     1      -1.269   0.008  -0.076  1.00  0.00    +0.173 C 
ATOM      7  C   UNL     1      -1.926  -0.988   0.821  1.00  0.00    +0.041 C 
ATOM      8  O   UNL     1      -0.405  -0.884  -0.830  1.00  0.00    -0.365 OA
ATOM      9  C   UNL     1      -0.629  -1.690   1.324  1.00  0.00    +0.039 C 
ATOM     10  C   UNL     1       0.421  -1.441   0.210  1.00  0.00    +0.144 C 
BRANCH  10  11
ATOM     11  C   UNL     1       1.487  -0.398   0.492  1.00  0.00    -0.040 A 
ATOM     12  C   UNL     1       2.534  -0.434   1.388  1.00  0.00    -0.021 A 
ATOM     13  N   UNL     1       1.534   0.833  -0.156  1.00  0.00    -0.445 NA
ATOM     14  N   UNL     1       3.191   0.737   1.303  1.00  0.00    -0.449 NA
ATOM     15  C   UNL     1       2.618   1.477   0.343  1.00  0.00    -0.045 A 
ENDBRANCH  10  11
ENDBRANCH   1   6
TORSDOF 3
