REMARK SMILES C[C@]1([C@H]2Cc3ccc4c(c3O2)-n2cc(C(=O)[O-])c(=O)c3cc(F)c(N5CC[C@H]([NH3+])C5)c(c32)O4)CO1
REMARK SMILES IDX 3 1 4 2 5 3 6 4 7 5 8 6 9 7 10 8 11 9 12 10 13 11 14 12
REMARK SMILES IDX 18 13 19 14 20 15 21 16 22 17 23 18 24 19 31 20 32 21 33 22
REMARK SMILES IDX 2 23 34 24 35 25 1 26 15 27 16 28 17 29 25 30 26 31 30 32
REMARK SMILES IDX 27 33 28 34 29 35
REMARK H PARENT 29 36 29 37 29 38
ROOT
ATOM      1  C   UNL     1      -4.640  -0.902  -0.606  1.00  0.00    +0.212 C 
ATOM      2  C   UNL     1      -4.478  -0.091  -1.896  1.00  0.00    +0.088 C 
ATOM      3  C   UNL     1      -3.002   0.077  -1.881  1.00  0.00    +0.000 A 
ATOM      4  C   UNL     1      -2.181   0.530  -2.895  1.00  0.00    +0.012 A 
ATOM      5  C   UNL     1      -0.829   0.689  -2.608  1.00  0.00    +0.050 A 
ATOM      6  C   UNL     1      -0.330   0.400  -1.321  1.00  0.00    +0.155 A 
ATOM      7  C   UNL     1      -1.155  -0.073  -0.279  1.00  0.00    +0.132 A 
ATOM      8  C   UNL     1      -2.503  -0.216  -0.610  1.00  0.00    +0.151 A 
ATOM      9  O   UNL     1      -3.509  -0.597   0.246  1.00  0.00    -0.484 OA
ATOM     10  N   UNL     1      -0.558  -0.337   0.986  1.00  0.00    -0.306 N 
ATOM     11  C   UNL     1      -1.198  -0.945   2.058  1.00  0.00    +0.106 C 
ATOM     12  C   UNL     1      -0.686  -1.146   3.281  1.00  0.00    +0.062 C 
ATOM     13  C   UNL     1       0.668  -0.665   3.571  1.00  0.00    +0.198 C 
ATOM     14  O   UNL     1       1.187  -0.652   4.681  1.00  0.00    -0.288 OA
ATOM     15  C   UNL     1       1.438  -0.152   2.418  1.00  0.00    +0.054 A 
ATOM     16  C   UNL     1       2.785   0.161   2.590  1.00  0.00    +0.056 A 
ATOM     17  C   UNL     1       3.520   0.598   1.500  1.00  0.00    +0.151 A 
ATOM     18  F   UNL     1       4.845   0.764   1.671  1.00  0.00    -0.205 F 
ATOM     19  C   UNL     1       2.961   0.760   0.215  1.00  0.00    +0.119 A 
ATOM     20  C   UNL     1       1.586   0.450   0.082  1.00  0.00    +0.178 A 
ATOM     21  C   UNL     1       0.818  -0.009   1.168  1.00  0.00    +0.103 A 
ATOM     22  O   UNL     1       1.024   0.621  -1.169  1.00  0.00    -0.450 OA
ENDROOT
BRANCH   1  23
ATOM     23  C   UNL     1      -5.908  -0.673   0.176  1.00  0.00    +0.126 C 
ATOM     24  C   UNL     1      -6.330   0.728   0.561  1.00  0.00    +0.200 C 
ATOM     25  O   UNL     1      -6.959   0.016  -0.519  1.00  0.00    -0.366 OA
ATOM     26  C   UNL     1      -6.380  -1.812   1.028  1.00  0.00    +0.049 C 
ENDBRANCH   1  23
BRANCH  12  27
ATOM     27  C   UNL     1      -1.493  -1.933   4.285  1.00  0.00    +0.077 C 
ATOM     28  O   UNL     1      -1.014  -3.064   4.584  1.00  0.00    -0.545 OA
ATOM     29  O   UNL     1      -2.593  -1.408   4.623  1.00  0.00    -0.545 OA
ENDBRANCH  12  27
BRANCH  19  30
ATOM     30  N   UNL     1       3.745   1.145  -0.858  1.00  0.00    -0.360 N 
ATOM     31  C   UNL     1       3.738   0.415  -2.128  1.00  0.00    +0.123 C 
ATOM     32  C   UNL     1       4.859   2.084  -0.797  1.00  0.00    +0.181 C 
ATOM     33  C   UNL     1       5.143   0.684  -2.701  1.00  0.00    +0.088 C 
ATOM     34  C   UNL     1       5.936   1.275  -1.532  1.00  0.00    +0.202 C 
BRANCH  34  35
ATOM     35  N   UNL     1       6.383   0.160  -0.632  1.00  0.00    -0.354 N 
ATOM     36  H   UNL     1       6.956  -0.551  -1.096  1.00  0.00    +0.344 HD
ATOM     37  H   UNL     1       6.888   0.515   0.191  1.00  0.00    +0.344 HD
ATOM     38  H   UNL     1       5.541  -0.297  -0.241  1.00  0.00    +0.344 HD
ENDBRANCH  34  35
ENDBRANCH  19  30
TORSDOF 4
