REMARK SMILES CCN1c2ncc(OCc3ccccc3)cc2C(=O)N(C)c2ccc(Cl)nc21
REMARK SMILES IDX 3 1 4 2 5 3 6 4 7 5 16 6 17 7 18 8 19 9 20 10 21 11 22 12
REMARK SMILES IDX 23 13 24 14 25 15 26 16 27 17 28 18 2 19 1 20 8 21 9 22
REMARK SMILES IDX 10 23 11 24 15 25 12 26 14 27 13 28
REMARK H PARENT
ROOT
ATOM      1  N   UNL     1      -2.534  -1.291   0.304  1.00  0.00    -0.309 N 
ATOM      2  C   UNL     1      -1.161  -1.021   0.217  1.00  0.00    +0.147 A 
ATOM      3  N   UNL     1      -0.323  -2.047  -0.098  1.00  0.00    -0.234 NA
ATOM      4  C   UNL     1       1.002  -1.796  -0.235  1.00  0.00    +0.160 A 
ATOM      5  C   UNL     1       1.582  -0.554  -0.063  1.00  0.00    +0.139 A 
ATOM      6  C   UNL     1       0.730   0.486   0.277  1.00  0.00    +0.065 A 
ATOM      7  C   UNL     1      -0.656   0.256   0.414  1.00  0.00    +0.087 A 
ATOM      8  C   UNL     1      -1.468   1.379   0.912  1.00  0.00    +0.262 C 
ATOM      9  O   UNL     1      -0.896   2.133   1.708  1.00  0.00    -0.269 OA
ATOM     10  N   UNL     1      -2.752   1.654   0.433  1.00  0.00    -0.308 N 
ATOM     11  C   UNL     1      -3.335   2.925   0.869  1.00  0.00    +0.154 C 
ATOM     12  C   UNL     1      -3.534   0.831  -0.443  1.00  0.00    +0.087 A 
ATOM     13  C   UNL     1      -4.502   1.445  -1.265  1.00  0.00    +0.033 A 
ATOM     14  C   UNL     1      -5.349   0.690  -2.067  1.00  0.00    +0.043 A 
ATOM     15  C   UNL     1      -5.214  -0.675  -2.011  1.00  0.00    +0.131 A 
ATOM     16 Cl   UNL     1      -6.218  -1.703  -2.943  1.00  0.00    -0.062 Cl
ATOM     17  N   UNL     1      -4.314  -1.311  -1.244  1.00  0.00    -0.217 NA
ATOM     18  C   UNL     1      -3.465  -0.578  -0.472  1.00  0.00    +0.160 A 
ENDROOT
BRANCH   1  19
ATOM     19  C   UNL     1      -2.864  -2.700   0.585  1.00  0.00    +0.122 C 
ATOM     20  C   UNL     1      -4.093  -2.821   1.484  1.00  0.00    +0.028 C 
ENDBRANCH   1  19
BRANCH   5  21
ATOM     21  O   UNL     1       2.931  -0.487  -0.233  1.00  0.00    -0.487 OA
BRANCH  21  22
ATOM     22  C   UNL     1       3.554   0.775   0.002  1.00  0.00    +0.265 C 
BRANCH  22  23
ATOM     23  C   UNL     1       5.036   0.613  -0.232  1.00  0.00    -0.011 A 
ATOM     24  C   UNL     1       5.912   0.416   0.845  1.00  0.00    +0.007 A 
ATOM     25  C   UNL     1       5.553   0.626  -1.535  1.00  0.00    +0.007 A 
ATOM     26  C   UNL     1       7.280   0.255   0.622  1.00  0.00    +0.000 A 
ATOM     27  C   UNL     1       6.922   0.465  -1.755  1.00  0.00    +0.000 A 
ATOM     28  C   UNL     1       7.785   0.282  -0.677  1.00  0.00    +0.000 A 
ENDBRANCH  22  23
ENDBRANCH  21  22
ENDBRANCH   5  21
TORSDOF 4
