REMARK SMILES CC1=CCC[C@H]2[C@@]1(C)[C@@H](OC(=O)c1ccccc1)[C@H](O)[C@]1(C)O[C@@]3(COC(=O)C3)C[C@H](OC(=O)c3cccnc3)[C@]21C
REMARK SMILES IDX 1 1 2 2 3 3 4 4 5 5 6 6 7 7 8 8 9 9 19 10 21 11 22 12 23 13
REMARK SMILES IDX 24 14 25 15 26 16 27 17 28 18 29 19 30 20 31 21 41 22 42 23
REMARK SMILES IDX 10 24 11 25 12 26 13 27 14 28 18 29 15 30 17 31 16 32 20 33
REMARK SMILES IDX 32 35 33 36 34 37 35 38 36 39 40 40 37 41 39 42 38 43
REMARK H PARENT 20 34
ROOT
ATOM      1  C   UNL     1       2.747   2.928  -0.625  1.00  0.00    +0.040 C 
ATOM      2  C   UNL     1       1.318   2.550  -0.314  1.00  0.00    -0.067 C 
ATOM      3  C   UNL     1       0.345   3.419  -0.647  1.00  0.00    -0.027 C 
ATOM      4  C   UNL     1      -1.110   3.218  -0.397  1.00  0.00    +0.027 C 
ATOM      5  C   UNL     1      -1.447   1.957   0.396  1.00  0.00    +0.009 C 
ATOM      6  C   UNL     1      -0.490   0.789   0.067  1.00  0.00    +0.016 C 
ATOM      7  C   UNL     1       1.011   1.202   0.408  1.00  0.00    +0.032 C 
ATOM      8  C   UNL     1       1.258   1.500   1.909  1.00  0.00    +0.020 C 
ATOM      9  C   UNL     1       1.949   0.048  -0.080  1.00  0.00    +0.218 C 
ATOM     10  C   UNL     1       1.517  -1.332   0.465  1.00  0.00    +0.188 C 
ATOM     11  C   UNL     1       0.065  -1.729   0.064  1.00  0.00    +0.105 C 
ATOM     12  C   UNL     1      -0.163  -3.154   0.628  1.00  0.00    +0.046 C 
ATOM     13  O   UNL     1       0.075  -1.760  -1.384  1.00  0.00    -0.361 OA
ATOM     14  C   UNL     1      -1.137  -1.988  -2.106  1.00  0.00    +0.117 C 
ATOM     15  C   UNL     1      -1.512  -3.466  -2.197  1.00  0.00    +0.269 C 
ATOM     16  O   UNL     1      -2.143  -3.644  -3.466  1.00  0.00    -0.462 OA
ATOM     17  C   UNL     1      -1.749  -2.640  -4.296  1.00  0.00    +0.308 C 
ATOM     18  O   UNL     1      -2.075  -2.550  -5.468  1.00  0.00    -0.252 OA
ATOM     19  C   UNL     1      -0.846  -1.692  -3.575  1.00  0.00    +0.162 C 
ATOM     20  C   UNL     1      -2.296  -1.112  -1.607  1.00  0.00    +0.085 C 
ATOM     21  C   UNL     1      -2.358  -1.086  -0.081  1.00  0.00    +0.189 C 
ATOM     22  C   UNL     1      -0.978  -0.657   0.557  1.00  0.00    +0.040 C 
ATOM     23  C   UNL     1      -1.180  -0.706   2.090  1.00  0.00    +0.019 C 
ENDROOT
BRANCH   9  24
ATOM     24  O   UNL     1       3.307   0.283   0.385  1.00  0.00    -0.455 OA
BRANCH  24  25
ATOM     25  C   UNL     1       4.304  -0.182  -0.410  1.00  0.00    +0.338 C 
ATOM     26  O   UNL     1       4.153  -0.747  -1.483  1.00  0.00    -0.246 OA
BRANCH  25  27
ATOM     27  C   UNL     1       5.634   0.102   0.194  1.00  0.00    +0.060 A 
ATOM     28  C   UNL     1       5.776   0.741   1.433  1.00  0.00    +0.015 A 
ATOM     29  C   UNL     1       6.778  -0.286  -0.516  1.00  0.00    +0.015 A 
ATOM     30  C   UNL     1       7.049   0.989   1.953  1.00  0.00    +0.001 A 
ATOM     31  C   UNL     1       8.049  -0.037   0.007  1.00  0.00    +0.001 A 
ATOM     32  C   UNL     1       8.183   0.600   1.240  1.00  0.00    +0.000 A 
ENDBRANCH  25  27
ENDBRANCH  24  25
ENDBRANCH   9  24
BRANCH  10  33
ATOM     33  O   UNL     1       2.428  -2.352   0.008  1.00  0.00    -0.386 OA
ATOM     34  H   UNL     1       2.616  -2.171  -0.936  1.00  0.00    +0.211 HD
ENDBRANCH  10  33
BRANCH  21  35
ATOM     35  O   UNL     1      -3.441  -0.250   0.374  1.00  0.00    -0.458 OA
BRANCH  35  36
ATOM     36  C   UNL     1      -4.683  -0.800   0.337  1.00  0.00    +0.339 C 
ATOM     37  O   UNL     1      -4.955  -1.916  -0.074  1.00  0.00    -0.246 OA
BRANCH  36  38
ATOM     38  C   UNL     1      -5.691   0.145   0.858  1.00  0.00    +0.078 A 
ATOM     39  C   UNL     1      -5.374   1.335   1.518  1.00  0.00    +0.019 A 
ATOM     40  C   UNL     1      -7.035  -0.170   0.699  1.00  0.00    +0.126 A 
ATOM     41  C   UNL     1      -6.401   2.158   1.978  1.00  0.00    +0.021 A 
ATOM     42  N   UNL     1      -8.052   0.614   1.136  1.00  0.00    -0.264 NA
ATOM     43  C   UNL     1      -7.711   1.760   1.764  1.00  0.00    +0.111 A 
ENDBRANCH  36  38
ENDBRANCH  35  36
ENDBRANCH  21  35
TORSDOF 7
