REMARK SMILES C[C@H](O)CNc1nccc(-n2ccnc2-c2cccc(NC(=O)c3coc(-c4cc(C(F)(F)F)ccc4Cl)c3)c2)n1
REMARK SMILES IDX 11 1 12 2 13 3 14 4 15 5 10 6 6 7 7 8 41 9 8 10 9 11 5 12
REMARK SMILES IDX 4 14 2 15 1 16 3 17 16 19 17 20 40 21 18 22 20 23 19 24
REMARK SMILES IDX 21 25 22 26 23 27 24 29 25 30 39 31 26 32 27 33 28 34 29 35
REMARK SMILES IDX 37 36 30 37 36 38 35 39 38 40 31 41 32 42 33 43 34 44
REMARK H PARENT 5 13 3 18 21 28
ROOT
ATOM      1  N   UNL     1      -4.593  -1.443   2.406  1.00  0.00    -0.284 N 
ATOM      2  C   UNL     1      -5.104  -1.395   3.691  1.00  0.00    +0.115 A 
ATOM      3  C   UNL     1      -4.074  -1.736   4.529  1.00  0.00    +0.132 A 
ATOM      4  N   UNL     1      -2.955  -2.037   3.815  1.00  0.00    -0.236 NA
ATOM      5  C   UNL     1      -3.283  -1.914   2.538  1.00  0.00    +0.145 A 
ENDROOT
BRANCH   1   6
ATOM      6  C   UNL     1      -5.269  -1.048   1.209  1.00  0.00    +0.143 A 
ATOM      7  C   UNL     1      -5.155  -0.485  -1.026  1.00  0.00    +0.224 A 
ATOM      8  N   UNL     1      -6.466  -0.239  -1.095  1.00  0.00    -0.222 NA
ATOM      9  N   UNL     1      -4.536  -0.896   0.086  1.00  0.00    -0.195 NA
ATOM     10  C   UNL     1      -7.176  -0.402   0.034  1.00  0.00    +0.119 A 
ATOM     11  C   UNL     1      -6.627  -0.799   1.229  1.00  0.00    +0.068 A 
BRANCH   7  12
ATOM     12  N   UNL     1      -4.447  -0.272  -2.176  1.00  0.00    -0.352 N 
ATOM     13  H   UNL     1      -5.020  -0.111  -2.991  1.00  0.00    +0.163 HD
BRANCH  12  14
ATOM     14  C   UNL     1      -3.051  -0.650  -2.278  1.00  0.00    +0.147 C 
BRANCH  14  15
ATOM     15  C   UNL     1      -2.442  -0.011  -3.539  1.00  0.00    +0.130 C 
ATOM     16  C   UNL     1      -0.968  -0.349  -3.683  1.00  0.00    +0.040 C 
BRANCH  15  17
ATOM     17  O   UNL     1      -2.572   1.414  -3.471  1.00  0.00    -0.392 OA
ATOM     18  H   UNL     1      -3.392   1.587  -2.970  1.00  0.00    +0.211 HD
ENDBRANCH  15  17
ENDBRANCH  14  15
ENDBRANCH  12  14
ENDBRANCH   7  12
ENDBRANCH   1   6
BRANCH   5  19
ATOM     19  C   UNL     1      -2.376  -2.280   1.449  1.00  0.00    +0.020 A 
ATOM     20  C   UNL     1      -2.637  -3.395   0.645  1.00  0.00    +0.012 A 
ATOM     21  C   UNL     1      -1.197  -1.549   1.247  1.00  0.00    +0.038 A 
ATOM     22  C   UNL     1      -1.742  -3.756  -0.360  1.00  0.00    +0.003 A 
ATOM     23  C   UNL     1      -0.300  -1.895   0.226  1.00  0.00    +0.042 A 
ATOM     24  C   UNL     1      -0.581  -3.006  -0.572  1.00  0.00    +0.026 A 
BRANCH  23  25
ATOM     25  N   UNL     1       0.845  -1.085   0.077  1.00  0.00    -0.322 N 
ATOM     26  C   UNL     1       1.820  -1.172  -0.899  1.00  0.00    +0.258 C 
ATOM     27  O   UNL     1       1.815  -1.950  -1.846  1.00  0.00    -0.269 OA
ATOM     28  H   UNL     1       0.936  -0.337   0.750  1.00  0.00    +0.170 HD
BRANCH  26  29
ATOM     29  C   UNL     1       2.906  -0.209  -0.739  1.00  0.00    +0.079 A 
ATOM     30  C   UNL     1       3.890  -0.006  -1.686  1.00  0.00    +0.209 A 
ATOM     31  C   UNL     1       3.237   0.685   0.326  1.00  0.00    +0.064 A 
ATOM     32  O   UNL     1       4.772   0.940  -1.284  1.00  0.00    -0.463 OA
ATOM     33  C   UNL     1       4.372   1.376  -0.053  1.00  0.00    +0.136 A 
BRANCH  33  34
ATOM     34  C   UNL     1       5.212   2.408   0.552  1.00  0.00    +0.036 A 
ATOM     35  C   UNL     1       6.606   2.346   0.342  1.00  0.00    +0.026 A 
ATOM     36  C   UNL     1       4.711   3.458   1.340  1.00  0.00    +0.052 A 
ATOM     37  C   UNL     1       7.485   3.293   0.896  1.00  0.00    +0.056 A 
ATOM     38  C   UNL     1       5.580   4.401   1.905  1.00  0.00    +0.022 A 
ATOM     39  C   UNL     1       6.957   4.317   1.690  1.00  0.00    +0.014 A 
ATOM     40 Cl   UNL     1       3.022   3.691   1.640  1.00  0.00    -0.084 Cl
BRANCH  37  41
ATOM     41  C   UNL     1       8.974   3.178   0.669  1.00  0.00    +0.416 C 
ATOM     42  F   UNL     1       9.628   4.365   0.800  1.00  0.00    -0.166 F 
ATOM     43  F   UNL     1       9.289   2.714  -0.571  1.00  0.00    -0.166 F 
ATOM     44  F   UNL     1       9.563   2.326   1.551  1.00  0.00    -0.166 F 
ENDBRANCH  37  41
ENDBRANCH  33  34
ENDBRANCH  26  29
ENDBRANCH  23  25
ENDBRANCH   5  19
TORSDOF 10
