REMARK SMILES CC1=CCC[C@H]2[C@@]1(C)[C@@H](OC(=O)c1cccnc1)[C@H](OC(=O)c1ccccc1)[C@](C)(O)[C@]2(C)[C@H]1CC2=C(O1)C(=O)OC2
REMARK SMILES IDX 1 1 2 2 3 3 4 4 5 5 6 6 7 7 8 8 9 9 19 10 29 11 30 12 32 13
REMARK SMILES IDX 33 14 10 15 11 16 12 17 13 18 14 19 18 20 15 21 17 22 16 23
REMARK SMILES IDX 34 24 35 25 38 26 36 27 37 28 42 29 39 30 41 31 40 32 20 33
REMARK SMILES IDX 21 34 22 35 23 36 24 37 28 38 25 39 27 40 26 41 31 42
REMARK H PARENT 31 43
ROOT
ATOM      1  C   UNL     1       2.602  -2.558   1.793  1.00  0.00    +0.040 C 
ATOM      2  C   UNL     1       1.417  -2.951   0.946  1.00  0.00    -0.067 C 
ATOM      3  C   UNL     1       0.922  -4.197   1.087  1.00  0.00    -0.027 C 
ATOM      4  C   UNL     1      -0.226  -4.761   0.318  1.00  0.00    +0.027 C 
ATOM      5  C   UNL     1      -0.756  -3.841  -0.779  1.00  0.00    +0.009 C 
ATOM      6  C   UNL     1      -0.680  -2.353  -0.354  1.00  0.00    +0.016 C 
ATOM      7  C   UNL     1       0.830  -1.939  -0.087  1.00  0.00    +0.033 C 
ATOM      8  C   UNL     1       1.756  -2.068  -1.325  1.00  0.00    +0.020 C 
ATOM      9  C   UNL     1       0.844  -0.464   0.442  1.00  0.00    +0.231 C 
ATOM     10  C   UNL     1       0.060   0.505  -0.475  1.00  0.00    +0.250 C 
ATOM     11  C   UNL     1      -1.431   0.101  -0.667  1.00  0.00    +0.112 C 
ATOM     12  C   UNL     1      -2.129   1.195  -1.505  1.00  0.00    +0.047 C 
ATOM     13  C   UNL     1      -1.572  -1.372  -1.239  1.00  0.00    +0.041 C 
ATOM     14  C   UNL     1      -1.144  -1.402  -2.732  1.00  0.00    +0.019 C 
ENDROOT
BRANCH   9  15
ATOM     15  O   UNL     1       2.216   0.026   0.483  1.00  0.00    -0.454 OA
BRANCH  15  16
ATOM     16  C   UNL     1       2.573   0.803   1.535  1.00  0.00    +0.340 C 
ATOM     17  O   UNL     1       1.879   1.078   2.500  1.00  0.00    -0.246 OA
BRANCH  16  18
ATOM     18  C   UNL     1       3.957   1.288   1.362  1.00  0.00    +0.078 A 
ATOM     19  C   UNL     1       4.666   1.187   0.162  1.00  0.00    +0.019 A 
ATOM     20  C   UNL     1       4.585   1.899   2.439  1.00  0.00    +0.126 A 
ATOM     21  C   UNL     1       5.966   1.685   0.093  1.00  0.00    +0.021 A 
ATOM     22  N   UNL     1       5.850   2.386   2.400  1.00  0.00    -0.264 NA
ATOM     23  C   UNL     1       6.510   2.269   1.227  1.00  0.00    +0.111 A 
ENDBRANCH  16  18
ENDBRANCH  15  16
ENDBRANCH   9  15
BRANCH  13  24
ATOM     24  C   UNL     1      -3.074  -1.899  -1.231  1.00  0.00    +0.187 C 
ATOM     25  C   UNL     1      -3.741  -2.236   0.144  1.00  0.00    +0.084 C 
ATOM     26  O   UNL     1      -3.975  -1.031  -1.994  1.00  0.00    -0.482 OA
ATOM     27  C   UNL     1      -5.087  -1.727  -0.103  1.00  0.00    +0.020 C 
ATOM     28  C   UNL     1      -5.124  -1.099  -1.254  1.00  0.00    +0.207 C 
ATOM     29  C   UNL     1      -6.351  -1.638   0.608  1.00  0.00    +0.269 C 
ATOM     30  C   UNL     1      -6.450  -0.517  -1.418  1.00  0.00    +0.374 C 
ATOM     31  O   UNL     1      -7.173  -0.867  -0.299  1.00  0.00    -0.455 OA
ATOM     32  O   UNL     1      -6.856   0.147  -2.352  1.00  0.00    -0.242 OA
ENDBRANCH  13  24
BRANCH  10  33
ATOM     33  O   UNL     1       0.075   1.821   0.161  1.00  0.00    -0.452 OA
BRANCH  33  34
ATOM     34  C   UNL     1       0.871   2.766  -0.398  1.00  0.00    +0.338 C 
ATOM     35  O   UNL     1       1.551   2.629  -1.402  1.00  0.00    -0.246 OA
BRANCH  34  36
ATOM     36  C   UNL     1       0.800   4.029   0.380  1.00  0.00    +0.060 A 
ATOM     37  C   UNL     1       1.262   5.206  -0.224  1.00  0.00    +0.015 A 
ATOM     38  C   UNL     1       0.312   4.071   1.693  1.00  0.00    +0.015 A 
ATOM     39  C   UNL     1       1.223   6.415   0.474  1.00  0.00    +0.001 A 
ATOM     40  C   UNL     1       0.277   5.282   2.388  1.00  0.00    +0.001 A 
ATOM     41  C   UNL     1       0.729   6.451   1.777  1.00  0.00    +0.000 A 
ENDBRANCH  34  36
ENDBRANCH  33  34
ENDBRANCH  10  33
BRANCH  11  42
ATOM     42  O   UNL     1      -2.041   0.152   0.636  1.00  0.00    -0.385 OA
ATOM     43  H   UNL     1      -1.841   1.034   1.007  1.00  0.00    +0.211 HD
ENDBRANCH  11  42
TORSDOF 8
