REMARK SMILES O=C(Nc1cccc(Cl)c1)Nc1c(-c2ccc(F)cc2)[n-]c2ccccc2c1=O
REMARK SMILES IDX 12 1 13 2 21 3 22 4 23 5 24 6 25 7 26 8 27 9 28 10 29 11
REMARK SMILES IDX 11 12 1 13 2 14 3 15 4 18 5 19 10 20 6 21 8 22 7 23 9 24
REMARK SMILES IDX 14 25 15 26 20 27 16 28 19 29 17 30 18 31
REMARK H PARENT 3 16 11 17
ROOT
ATOM      1  C   UNL     1      -0.939  -0.553  -0.114  1.00  0.00    +0.076 C 
ATOM      2  C   UNL     1      -2.061   0.077  -0.551  1.00  0.00    -0.101 C 
ATOM      3  N   UNL     1      -3.275  -0.422  -0.903  1.00  0.00    -0.655 NA
ATOM      4  C   UNL     1      -3.370  -1.772  -0.860  1.00  0.00    -0.125 A 
ATOM      5  C   UNL     1      -4.556  -2.381  -1.301  1.00  0.00    -0.015 A 
ATOM      6  C   UNL     1      -4.722  -3.771  -1.281  1.00  0.00    -0.001 A 
ATOM      7  C   UNL     1      -3.700  -4.592  -0.813  1.00  0.00    +0.001 A 
ATOM      8  C   UNL     1      -2.513  -4.021  -0.365  1.00  0.00    +0.011 A 
ATOM      9  C   UNL     1      -2.351  -2.627  -0.393  1.00  0.00    +0.009 A 
ATOM     10  C   UNL     1      -1.088  -2.031   0.112  1.00  0.00    +0.206 C 
ATOM     11  O   UNL     1      -0.284  -2.712   0.745  1.00  0.00    -0.287 OA
ENDROOT
BRANCH   1  12
ATOM     12  N   UNL     1       0.222   0.118   0.214  1.00  0.00    -0.305 N 
ATOM     13  O   UNL     1       1.894  -1.383  -0.356  1.00  0.00    -0.248 OA
ATOM     14  C   UNL     1       1.510  -0.386   0.239  1.00  0.00    +0.323 C 
ATOM     15  N   UNL     1       2.320   0.461   0.989  1.00  0.00    -0.308 N 
ATOM     16  H   UNL     1       1.812   1.141   1.533  1.00  0.00    +0.171 HD
ATOM     17  H   UNL     1       0.141   1.121   0.236  1.00  0.00    +0.171 HD
BRANCH  15  18
ATOM     18  C   UNL     1       3.715   0.400   1.164  1.00  0.00    +0.044 A 
ATOM     19  C   UNL     1       4.544  -0.513   0.508  1.00  0.00    +0.026 A 
ATOM     20  C   UNL     1       4.291   1.325   2.044  1.00  0.00    +0.046 A 
ATOM     21  C   UNL     1       5.926  -0.509   0.727  1.00  0.00    +0.004 A 
ATOM     22  C   UNL     1       5.670   1.326   2.259  1.00  0.00    +0.043 A 
ATOM     23  C   UNL     1       6.491   0.413   1.605  1.00  0.00    +0.020 A 
ATOM     24 Cl   UNL     1       6.364   2.471   3.344  1.00  0.00    -0.084 Cl
ENDBRANCH  15  18
ENDBRANCH   1  12
BRANCH   2  25
ATOM     25  C   UNL     1      -2.021   1.553  -0.717  1.00  0.00    -0.038 A 
ATOM     26  C   UNL     1      -2.508   2.390   0.298  1.00  0.00    +0.010 A 
ATOM     27  C   UNL     1      -1.470   2.121  -1.876  1.00  0.00    +0.010 A 
ATOM     28  C   UNL     1      -2.440   3.776   0.159  1.00  0.00    +0.040 A 
ATOM     29  C   UNL     1      -1.401   3.507  -2.014  1.00  0.00    +0.040 A 
ATOM     30  C   UNL     1      -1.885   4.320  -0.995  1.00  0.00    +0.123 A 
ATOM     31  F   UNL     1      -1.815   5.653  -1.126  1.00  0.00    -0.207 F 
ENDBRANCH   2  25
TORSDOF 3
