REMARK SMILES COc1ccc2nc3cc(Cl)ccc3c(Nc3ccc(Nc4nc(NCCO)nc(Nc5ccccc5)n4)cc3)c2c1
REMARK SMILES IDX 22 1 23 2 24 3 29 4 30 5 38 6 21 7 20 9 17 10 18 11 40 12
REMARK SMILES IDX 19 13 39 14 16 15 15 17 3 18 4 19 42 20 5 21 41 22 6 23 7 24
REMARK SMILES IDX 14 25 8 26 13 27 9 28 12 29 10 30 11 31 2 32 1 33 25 34
REMARK SMILES IDX 26 36 27 37 28 38 31 40 32 42 33 43 37 44 34 45 36 46 35 47
REMARK H PARENT 21 8 16 16 25 35 28 39 31 41
ROOT
ATOM      1  C   UNL     1      -2.387   0.560  -0.010  1.00  0.00    +0.233 A 
ATOM      2  N   UNL     1      -2.637  -0.605  -0.589  1.00  0.00    -0.177 NA
ATOM      3  C   UNL     1      -3.889  -0.819  -0.953  1.00  0.00    +0.229 A 
ATOM      4  N   UNL     1      -4.872   0.046  -0.772  1.00  0.00    -0.177 NA
ATOM      5  C   UNL     1      -4.548   1.190  -0.189  1.00  0.00    +0.233 A 
ATOM      6  N   UNL     1      -3.315   1.484   0.210  1.00  0.00    -0.176 NA
ENDROOT
BRANCH   1   7
ATOM      7  N   UNL     1      -1.106   0.907   0.418  1.00  0.00    -0.324 N 
ATOM      8  H   UNL     1      -1.131   1.831   0.826  1.00  0.00    +0.170 HD
BRANCH   7   9
ATOM      9  C   UNL     1       0.135   0.262   0.406  1.00  0.00    +0.041 A 
ATOM     10  C   UNL     1       2.723  -0.933   0.438  1.00  0.00    +0.039 A 
ATOM     11  C   UNL     1       1.617  -1.615  -0.075  1.00  0.00    +0.028 A 
ATOM     12  C   UNL     1       2.524   0.361   0.922  1.00  0.00    +0.028 A 
ATOM     13  C   UNL     1       0.343  -1.027  -0.087  1.00  0.00    +0.028 A 
ATOM     14  C   UNL     1       1.251   0.946   0.910  1.00  0.00    +0.028 A 
BRANCH  10  15
ATOM     15  N   UNL     1       3.989  -1.538   0.390  1.00  0.00    -0.354 N 
ATOM     16  H   UNL     1       3.994  -2.544   0.264  1.00  0.00    +0.167 HD
BRANCH  15  17
ATOM     17  C   UNL     1       5.265  -0.981   0.667  1.00  0.00    +0.058 A 
ATOM     18  C   UNL     1       5.778   1.534  -2.108  1.00  0.00    +0.119 A 
ATOM     19  C   UNL     1       7.024   2.019  -1.732  1.00  0.00    +0.048 A 
ATOM     20  C   UNL     1       5.188   0.536  -1.335  1.00  0.00    +0.059 A 
ATOM     21  C   UNL     1       7.663   1.511  -0.599  1.00  0.00    +0.033 A 
ATOM     22  C   UNL     1       5.820   0.026  -0.168  1.00  0.00    +0.028 A 
ATOM     23  C   UNL     1       7.087   0.523   0.186  1.00  0.00    +0.073 A 
ATOM     24  N   UNL     1       7.777   0.081   1.246  1.00  0.00    -0.248 NA
ATOM     25  C   UNL     1       5.998  -1.454   1.787  1.00  0.00    +0.024 A 
ATOM     26  C   UNL     1       7.260  -0.879   2.023  1.00  0.00    +0.074 A 
ATOM     27  C   UNL     1       5.522  -2.447   2.679  1.00  0.00    +0.014 A 
ATOM     28  C   UNL     1       8.010  -1.310   3.107  1.00  0.00    +0.049 A 
ATOM     29  C   UNL     1       6.290  -2.866   3.764  1.00  0.00    +0.021 A 
ATOM     30  C   UNL     1       7.537  -2.295   3.970  1.00  0.00    +0.043 A 
ATOM     31 Cl   UNL     1       8.498  -2.800   5.304  1.00  0.00    -0.084 Cl
BRANCH  18  32
ATOM     32  O   UNL     1       5.251   2.101  -3.233  1.00  0.00    -0.497 OA
ATOM     33  C   UNL     1       3.938   1.697  -3.602  1.00  0.00    +0.278 C 
ENDBRANCH  18  32
ENDBRANCH  15  17
ENDBRANCH  10  15
ENDBRANCH   7   9
ENDBRANCH   1   7
BRANCH   3  34
ATOM     34  N   UNL     1      -4.140  -2.028  -1.541  1.00  0.00    -0.352 N 
ATOM     35  H   UNL     1      -3.335  -2.613  -1.701  1.00  0.00    +0.163 HD
BRANCH  34  36
ATOM     36  C   UNL     1      -5.452  -2.412  -2.023  1.00  0.00    +0.144 C 
BRANCH  36  37
ATOM     37  C   UNL     1      -6.367  -2.835  -0.870  1.00  0.00    +0.177 C 
BRANCH  37  38
ATOM     38  O   UNL     1      -5.762  -3.894  -0.125  1.00  0.00    -0.395 OA
ATOM     39  H   UNL     1      -4.891  -3.546   0.146  1.00  0.00    +0.210 HD
ENDBRANCH  37  38
ENDBRANCH  36  37
ENDBRANCH  34  36
ENDBRANCH   3  34
BRANCH   5  40
ATOM     40  N   UNL     1      -5.496   2.179   0.066  1.00  0.00    -0.324 N 
ATOM     41  H   UNL     1      -5.054   2.952   0.542  1.00  0.00    +0.170 HD
BRANCH  40  42
ATOM     42  C   UNL     1      -6.864   2.312  -0.202  1.00  0.00    +0.041 A 
ATOM     43  C   UNL     1      -7.611   1.384  -0.935  1.00  0.00    +0.026 A 
ATOM     44  C   UNL     1      -7.540   3.434   0.306  1.00  0.00    +0.026 A 
ATOM     45  C   UNL     1      -8.980   1.568  -1.158  1.00  0.00    +0.002 A 
ATOM     46  C   UNL     1      -8.908   3.623   0.087  1.00  0.00    +0.002 A 
ATOM     47  C   UNL     1      -9.629   2.688  -0.646  1.00  0.00    +0.000 A 
ENDBRANCH  40  42
ENDBRANCH   5  40
TORSDOF 11
