REMARK SMILES COc1ccc(/C=C/C(=O)OCC(=O)Cc2ccc([O-])c([O-])c2)cc1[O-]
REMARK SMILES IDX 11 1 9 2 10 3 8 4 7 5 6 6 3 7 4 8 25 9 5 10 24 11 26 12 2 13
REMARK SMILES IDX 1 14 12 15 13 16 14 17 15 18 16 19 17 20 23 21 18 22 21 23
REMARK SMILES IDX 19 24 22 25 20 26
REMARK H PARENT
ROOT
ATOM      1  O   UNL     1      -1.108   0.342   0.267  1.00  0.00    -0.455 OA
ENDROOT
BRANCH   1   2
ATOM      2  C   UNL     1      -0.216   0.146  -0.736  1.00  0.00    +0.331 C 
ATOM      3  O   UNL     1      -0.467  -0.196  -1.881  1.00  0.00    -0.247 OA
BRANCH   2   4
ATOM      4  C   UNL     1       1.135   0.421  -0.198  1.00  0.00    +0.094 C 
ATOM      5  C   UNL     1       2.226   0.300  -0.972  1.00  0.00    +0.015 C 
BRANCH   5   6
ATOM      6  C   UNL     1       3.608   0.533  -0.513  1.00  0.00    -0.026 A 
ATOM      7  C   UNL     1       6.295   0.951   0.220  1.00  0.00    +0.111 A 
ATOM      8  C   UNL     1       5.340   0.499   1.153  1.00  0.00    +0.046 A 
ATOM      9  C   UNL     1       5.956   1.182  -1.142  1.00  0.00    -0.065 A 
ATOM     10  C   UNL     1       4.011   0.288   0.794  1.00  0.00    +0.012 A 
ATOM     11  C   UNL     1       4.583   0.955  -1.441  1.00  0.00    +0.003 A 
ATOM     12  O   UNL     1       6.751   1.546  -2.079  1.00  0.00    -0.870 OA
BRANCH   7  13
ATOM     13  O   UNL     1       7.533   1.087   0.821  1.00  0.00    -0.497 OA
ATOM     14  C   UNL     1       8.496   1.874   0.137  1.00  0.00    +0.278 C 
ENDBRANCH   7  13
ENDBRANCH   5   6
ENDBRANCH   2   4
ENDBRANCH   1   2
BRANCH   1  15
ATOM     15  C   UNL     1      -2.466   0.018  -0.063  1.00  0.00    +0.308 C 
BRANCH  15  16
ATOM     16  C   UNL     1      -2.708  -1.491  -0.110  1.00  0.00    +0.174 C 
ATOM     17  O   UNL     1      -1.870  -2.306   0.296  1.00  0.00    -0.295 OA
BRANCH  16  18
ATOM     18  C   UNL     1      -4.013  -1.955  -0.721  1.00  0.00    +0.114 C 
BRANCH  18  19
ATOM     19  C   UNL     1      -5.215  -1.434   0.004  1.00  0.00    -0.041 A 
ATOM     20  C   UNL     1      -5.554  -1.901   1.261  1.00  0.00    +0.003 A 
ATOM     21  C   UNL     1      -6.017  -0.436  -0.566  1.00  0.00    -0.005 A 
ATOM     22  C   UNL     1      -6.670  -1.370   1.910  1.00  0.00    -0.009 A 
ATOM     23  C   UNL     1      -7.163   0.144   0.049  1.00  0.00    -0.117 A 
ATOM     24  C   UNL     1      -7.514  -0.358   1.375  1.00  0.00    -0.117 A 
ATOM     25  O   UNL     1      -7.790   1.058  -0.611  1.00  0.00    -0.873 OA
ATOM     26  O   UNL     1      -8.511   0.029   2.098  1.00  0.00    -0.873 OA
ENDBRANCH  18  19
ENDBRANCH  16  18
ENDBRANCH  15  16
ENDBRANCH   1  15
TORSDOF 8
