REMARK SMILES C[NH+]1CCN(c2ccc(-c3cnn4c(N)c(-c5ccc(NC(=O)c6ccc(C(F)(F)F)cc6)cc5)cnc34)cc2)CC1
REMARK SMILES IDX 17 1 18 2 19 3 20 4 34 5 35 6 16 7 10 8 11 9 38 10 12 11
REMARK SMILES IDX 37 12 13 13 36 14 14 15 9 16 6 17 7 18 40 19 8 20 39 21 5 22
REMARK SMILES IDX 2 23 3 24 42 25 4 26 41 27 1 28 15 30 21 33 22 34 23 35
REMARK SMILES IDX 24 37 25 38 33 39 26 40 32 41 27 42 28 43 29 44 30 45 31 46
REMARK H PARENT 2 29 15 31 15 32 21 36
ROOT
ATOM      1  C   UNL     1       2.903   0.869   0.119  1.00  0.00    -0.013 A 
ATOM      2  C   UNL     1       3.462   0.194  -0.970  1.00  0.00    +0.011 A 
ATOM      3  C   UNL     1       4.798  -0.224  -0.940  1.00  0.00    +0.027 A 
ATOM      4  C   UNL     1       5.596   0.023   0.178  1.00  0.00    +0.041 A 
ATOM      5  C   UNL     1       5.037   0.704   1.266  1.00  0.00    +0.027 A 
ATOM      6  C   UNL     1       3.702   1.122   1.240  1.00  0.00    +0.011 A 
ENDROOT
BRANCH   1   7
ATOM      7  C   UNL     1       1.497   1.290   0.086  1.00  0.00    +0.042 C 
ATOM      8  C   UNL     1      -2.503   2.399  -0.026  1.00  0.00    +0.047 A 
ATOM      9  C   UNL     1      -2.222   3.781   0.012  1.00  0.00    +0.146 A 
ATOM     10  C   UNL     1      -1.257   1.793   0.001  1.00  0.00    +0.165 A 
ATOM     11  N   UNL     1      -0.921   4.058   0.055  1.00  0.00    -0.172 NA
ATOM     12  N   UNL     1      -0.872   0.479  -0.004  1.00  0.00    -0.236 NA
ATOM     13  N   UNL     1      -0.316   2.831   0.052  1.00  0.00    -0.198 N 
ATOM     14  C   UNL     1       0.408   0.264   0.037  1.00  0.00    +0.126 C 
ATOM     15  C   UNL     1       1.083   2.577   0.089  1.00  0.00    +0.136 C 
BRANCH   8  16
ATOM     16  C   UNL     1      -3.786   1.716  -0.069  1.00  0.00    -0.013 A 
ATOM     17  C   UNL     1      -6.329   0.417  -0.161  1.00  0.00    +0.037 A 
ATOM     18  C   UNL     1      -5.206  -0.114  -0.811  1.00  0.00    +0.026 A 
ATOM     19  C   UNL     1      -6.141   1.613   0.546  1.00  0.00    +0.026 A 
ATOM     20  C   UNL     1      -3.957   0.522  -0.771  1.00  0.00    +0.011 A 
ATOM     21  C   UNL     1      -4.894   2.257   0.589  1.00  0.00    +0.011 A 
BRANCH  17  22
ATOM     22  N   UNL     1      -7.556  -0.241  -0.212  1.00  0.00    -0.360 N 
ATOM     23  N   UNL     1     -10.168  -1.459  -0.425  1.00  0.00    -0.334 N 
ATOM     24  C   UNL     1      -9.538  -1.195   0.940  1.00  0.00    +0.283 C 
ATOM     25  C   UNL     1      -9.083  -1.760  -1.455  1.00  0.00    +0.283 C 
ATOM     26  C   UNL     1      -8.539  -0.024   0.860  1.00  0.00    +0.178 C 
ATOM     27  C   UNL     1      -8.078  -0.595  -1.544  1.00  0.00    +0.178 C 
ATOM     28  C   UNL     1     -11.206  -2.537  -0.368  1.00  0.00    +0.332 C 
ATOM     29  H   UNL     1     -10.631  -0.590  -0.719  1.00  0.00    +0.347 HD
ENDBRANCH  17  22
ENDBRANCH   8  16
BRANCH  15  30
ATOM     30  N   UNL     1       1.911   3.682   0.111  1.00  0.00    -0.383 N 
ATOM     31  H   UNL     1       1.467   4.598   0.067  1.00  0.00    +0.158 HD
ATOM     32  H   UNL     1       2.916   3.590   0.039  1.00  0.00    +0.158 HD
ENDBRANCH  15  30
ENDBRANCH   1   7
BRANCH   4  33
ATOM     33  N   UNL     1       6.949  -0.362   0.282  1.00  0.00    -0.322 N 
ATOM     34  C   UNL     1       7.680  -1.102  -0.631  1.00  0.00    +0.255 C 
ATOM     35  O   UNL     1       7.259  -1.632  -1.652  1.00  0.00    -0.269 OA
ATOM     36  H   UNL     1       7.415  -0.104   1.141  1.00  0.00    +0.170 HD
BRANCH  34  37
ATOM     37  C   UNL     1       9.116  -1.292  -0.280  1.00  0.00    +0.040 A 
ATOM     38  C   UNL     1       9.866  -0.280   0.332  1.00  0.00    +0.014 A 
ATOM     39  C   UNL     1       9.727  -2.508  -0.603  1.00  0.00    +0.014 A 
ATOM     40  C   UNL     1      11.213  -0.498   0.640  1.00  0.00    +0.014 A 
ATOM     41  C   UNL     1      11.073  -2.725  -0.293  1.00  0.00    +0.014 A 
ATOM     42  C   UNL     1      11.831  -1.720   0.328  1.00  0.00    +0.056 A 
BRANCH  42  43
ATOM     43  C   UNL     1      13.281  -1.958   0.683  1.00  0.00    +0.416 C 
ATOM     44  F   UNL     1      14.035  -0.827   0.618  1.00  0.00    -0.166 F 
ATOM     45  F   UNL     1      13.891  -2.862  -0.132  1.00  0.00    -0.166 F 
ATOM     46  F   UNL     1      13.426  -2.434   1.950  1.00  0.00    -0.166 F 
ENDBRANCH  42  43
ENDBRANCH  34  37
ENDBRANCH   4  33
TORSDOF 7
