REMARK SMILES Fc1cccc(-n2cc3c(n2)c([NH2+]C2CCCCC2)nc2ccccc23)c1
REMARK SMILES IDX 7 1 8 2 9 3 10 4 11 5 12 6 20 7 21 8 22 9 23 10 24 11 25 12
REMARK SMILES IDX 26 13 6 14 2 15 3 16 27 17 4 18 5 19 1 20 13 21 14 24 15 25
REMARK SMILES IDX 19 26 16 27 18 28 17 29
REMARK H PARENT 13 22 13 23
ROOT
ATOM      1  N   UNL     1      -2.054   0.892  -0.086  1.00  0.00    -0.239 N 
ATOM      2  C   UNL     1      -2.686  -0.330  -0.220  1.00  0.00    +0.124 A 
ATOM      3  C   UNL     1      -1.762  -1.281   0.118  1.00  0.00    +0.038 A 
ATOM      4  C   UNL     1      -0.571  -0.576   0.452  1.00  0.00    +0.175 A 
ATOM      5  N   UNL     1      -0.758   0.748   0.339  1.00  0.00    -0.160 NA
ATOM      6  C   UNL     1       0.564  -1.311   0.838  1.00  0.00    +0.253 A 
ATOM      7  N   UNL     1       0.473  -2.657   0.911  1.00  0.00    -0.194 NA
ATOM      8  C   UNL     1      -0.694  -3.307   0.577  1.00  0.00    +0.077 A 
ATOM      9  C   UNL     1      -0.717  -4.689   0.655  1.00  0.00    +0.029 A 
ATOM     10  C   UNL     1      -1.860  -5.440   0.336  1.00  0.00    +0.002 A 
ATOM     11  C   UNL     1      -3.032  -4.810  -0.078  1.00  0.00    +0.001 A 
ATOM     12  C   UNL     1      -3.071  -3.425  -0.175  1.00  0.00    +0.011 A 
ATOM     13  C   UNL     1      -1.913  -2.685   0.150  1.00  0.00    +0.012 A 
ENDROOT
BRANCH   1  14
ATOM     14  C   UNL     1      -2.590   2.187  -0.331  1.00  0.00    +0.067 A 
ATOM     15  C   UNL     1      -2.292   4.585  -0.380  1.00  0.00    +0.125 A 
ATOM     16  C   UNL     1      -3.602   4.761  -0.805  1.00  0.00    +0.039 A 
ATOM     17  C   UNL     1      -1.778   3.314  -0.141  1.00  0.00    +0.067 A 
ATOM     18  C   UNL     1      -4.416   3.647  -0.996  1.00  0.00    +0.005 A 
ATOM     19  C   UNL     1      -3.915   2.360  -0.761  1.00  0.00    +0.028 A 
ATOM     20  F   UNL     1      -1.506   5.653  -0.195  1.00  0.00    -0.207 F 
ENDBRANCH   1  14
BRANCH   6  21
ATOM     21  N   UNL     1       1.768  -0.627   1.228  1.00  0.00    -0.293 N 
ATOM     22  H   UNL     1       1.987  -1.001   2.157  1.00  0.00    +0.354 HD
ATOM     23  H   UNL     1       1.522   0.367   1.332  1.00  0.00    +0.354 HD
BRANCH  21  24
ATOM     24  C   UNL     1       2.899  -0.852   0.279  1.00  0.00    +0.188 C 
ATOM     25  C   UNL     1       4.196  -0.399   0.965  1.00  0.00    +0.065 C 
ATOM     26  C   UNL     1       2.686  -0.091  -1.037  1.00  0.00    +0.065 C 
ATOM     27  C   UNL     1       4.287   1.118   1.129  1.00  0.00    +0.006 C 
ATOM     28  C   UNL     1       2.787   1.427  -0.883  1.00  0.00    +0.006 C 
ATOM     29  C   UNL     1       4.088   1.839  -0.200  1.00  0.00    +0.000 C 
ENDBRANCH  21  24
ENDBRANCH   6  21
TORSDOF 3
