REMARK SMILES C#CCNC(=O)c1ncn2c1Cn1ncnc1-c1cc(F)ccc1-2
REMARK SMILES IDX 4 1 5 2 6 3 3 5 2 6 1 7 7 8 8 9 11 10 9 11 10 12 12 13 24 14
REMARK SMILES IDX 13 15 23 16 18 17 14 18 17 19 22 20 19 21 15 22 16 23 20 24
REMARK SMILES IDX 21 25
REMARK H PARENT 4 4
ROOT
ATOM      1  N   UNL     1       3.835  -0.027   0.070  1.00  0.00    -0.340 N 
ATOM      2  C   UNL     1       2.713  -0.647  -0.416  1.00  0.00    +0.272 C 
ATOM      3  O   UNL     1       2.728  -1.733  -0.985  1.00  0.00    -0.267 OA
ATOM      4  H   UNL     1       3.707   0.878   0.513  1.00  0.00    +0.164 HD
ENDROOT
BRANCH   1   5
ATOM      5  C   UNL     1       5.136  -0.622  -0.036  1.00  0.00    +0.206 C 
ATOM      6  C   UNL     1       6.145   0.261   0.551  1.00  0.00    -0.085 C 
ATOM      7  C   UNL     1       6.972   0.987   1.034  1.00  0.00    +0.006 C 
ENDBRANCH   1   5
BRANCH   2   8
ATOM      8  C   UNL     1       1.494   0.139  -0.197  1.00  0.00    +0.151 A 
ATOM      9  N   UNL     1       1.539   1.406   0.351  1.00  0.00    -0.231 NA
ATOM     10  C   UNL     1       0.183  -0.202  -0.505  1.00  0.00    +0.077 A 
ATOM     11  C   UNL     1       0.297   1.825   0.358  1.00  0.00    +0.205 A 
ATOM     12  N   UNL     1      -0.588   0.894  -0.147  1.00  0.00    -0.300 N 
ATOM     13  C   UNL     1      -0.354  -1.418  -1.171  1.00  0.00    +0.203 C 
ATOM     14  C   UNL     1      -1.998   1.083  -0.277  1.00  0.00    +0.058 A 
ATOM     15  N   UNL     1      -1.418  -2.003  -0.386  1.00  0.00    -0.240 N 
ATOM     16  C   UNL     1      -2.474   2.405  -0.420  1.00  0.00    +0.030 A 
ATOM     17  C   UNL     1      -2.920   0.013  -0.240  1.00  0.00    +0.046 A 
ATOM     18  N   UNL     1      -1.402  -3.304  -0.039  1.00  0.00    -0.159 NA
ATOM     19  C   UNL     1      -2.576  -1.388   0.001  1.00  0.00    +0.160 A 
ATOM     20  C   UNL     1      -3.840   2.664  -0.540  1.00  0.00    +0.041 A 
ATOM     21  C   UNL     1      -4.294   0.306  -0.353  1.00  0.00    +0.053 A 
ATOM     22  C   UNL     1      -2.585  -3.427   0.563  1.00  0.00    +0.246 A 
ATOM     23  N   UNL     1      -3.338  -2.290   0.595  1.00  0.00    -0.215 NA
ATOM     24  C   UNL     1      -4.738   1.612  -0.505  1.00  0.00    +0.124 A 
ATOM     25  F   UNL     1      -6.049   1.859  -0.615  1.00  0.00    -0.207 F 
ENDBRANCH   2   8
TORSDOF 2
