REMARK SMILES C[NH+]1CCN(c2ccc(-c3cnn4c(N)c(-c5ccc(NC(=O)Oc6ccccc6)cc5)cnc34)cc2)CC1
REMARK SMILES IDX 10 1 11 2 12 3 13 4 14 5 16 6 33 7 34 8 35 9 9 10 6 11 7 12
REMARK SMILES IDX 37 13 8 14 36 15 5 16 2 17 3 18 39 19 4 20 38 21 1 22 15 24
REMARK SMILES IDX 17 27 18 28 32 29 19 30 31 31 20 32 21 33 22 34 23 35 24 37
REMARK SMILES IDX 25 38 26 39 30 40 27 41 29 42 28 43
REMARK H PARENT 2 23 15 25 15 26 21 36
ROOT
ATOM      1  C   UNL     1      -2.299   2.491  -0.109  1.00  0.00    +0.047 A 
ATOM      2  C   UNL     1      -2.073   3.867  -0.323  1.00  0.00    +0.146 A 
ATOM      3  N   UNL     1      -0.788   4.208  -0.268  1.00  0.00    -0.172 NA
ATOM      4  N   UNL     1      -0.138   3.032  -0.014  1.00  0.00    -0.198 N 
ATOM      5  C   UNL     1       1.266   2.853   0.124  1.00  0.00    +0.136 C 
ATOM      6  C   UNL     1       1.730   1.606   0.364  1.00  0.00    +0.042 C 
ATOM      7  C   UNL     1       0.685   0.537   0.451  1.00  0.00    +0.126 C 
ATOM      8  N   UNL     1      -0.600   0.683   0.328  1.00  0.00    -0.236 NA
ATOM      9  C   UNL     1      -1.035   1.960   0.090  1.00  0.00    +0.165 A 
ENDROOT
BRANCH   1  10
ATOM     10  C   UNL     1      -3.548   1.745  -0.115  1.00  0.00    -0.013 A 
ATOM     11  C   UNL     1      -6.012   0.302  -0.144  1.00  0.00    +0.037 A 
ATOM     12  C   UNL     1      -4.968  -0.046   0.724  1.00  0.00    +0.026 A 
ATOM     13  C   UNL     1      -5.795   1.405  -0.983  1.00  0.00    +0.026 A 
ATOM     14  C   UNL     1      -3.756   0.659   0.738  1.00  0.00    +0.011 A 
ATOM     15  C   UNL     1      -4.586   2.117  -0.972  1.00  0.00    +0.011 A 
BRANCH  11  16
ATOM     16  N   UNL     1      -7.223  -0.392  -0.182  1.00  0.00    -0.360 N 
ATOM     17  N   UNL     1      -9.607  -2.055  -0.344  1.00  0.00    -0.334 N 
ATOM     18  C   UNL     1      -9.164  -1.428   0.974  1.00  0.00    +0.283 C 
ATOM     19  C   UNL     1      -9.171  -1.182  -1.517  1.00  0.00    +0.283 C 
ATOM     20  C   UNL     1      -7.648  -1.153   1.003  1.00  0.00    +0.178 C 
ATOM     21  C   UNL     1      -7.656  -0.896  -1.498  1.00  0.00    +0.178 C 
ATOM     22  C   UNL     1      -9.210  -3.493  -0.489  1.00  0.00    +0.332 C 
ATOM     23  H   UNL     1     -10.634  -2.035  -0.339  1.00  0.00    +0.347 HD
ENDBRANCH  11  16
ENDBRANCH   1  10
BRANCH   5  24
ATOM     24  N   UNL     1       2.049   3.982  -0.020  1.00  0.00    -0.383 N 
ATOM     25  H   UNL     1       1.573   4.855  -0.243  1.00  0.00    +0.158 HD
ATOM     26  H   UNL     1       3.059   3.927  -0.033  1.00  0.00    +0.158 HD
ENDBRANCH   5  24
BRANCH   6  27
ATOM     27  C   UNL     1       3.148   1.263   0.527  1.00  0.00    -0.013 A 
ATOM     28  C   UNL     1       3.781   0.428  -0.399  1.00  0.00    +0.011 A 
ATOM     29  C   UNL     1       3.885   1.751   1.611  1.00  0.00    +0.011 A 
ATOM     30  C   UNL     1       5.130   0.085  -0.244  1.00  0.00    +0.027 A 
ATOM     31  C   UNL     1       5.233   1.409   1.763  1.00  0.00    +0.027 A 
ATOM     32  C   UNL     1       5.866   0.572   0.837  1.00  0.00    +0.044 A 
BRANCH  32  33
ATOM     33  N   UNL     1       7.221   0.274   1.059  1.00  0.00    -0.291 N 
ATOM     34  C   UNL     1       8.053  -0.521   0.311  1.00  0.00    +0.417 C 
ATOM     35  O   UNL     1       7.767  -1.137  -0.705  1.00  0.00    -0.224 OA
ATOM     36  H   UNL     1       7.670   0.682   1.868  1.00  0.00    +0.173 HD
BRANCH  34  37
ATOM     37  O   UNL     1       9.305  -0.516   0.917  1.00  0.00    -0.410 OA
BRANCH  37  38
ATOM     38  C   UNL     1      10.287  -1.265   0.259  1.00  0.00    +0.132 A 
ATOM     39  C   UNL     1      10.839  -0.810  -0.938  1.00  0.00    +0.047 A 
ATOM     40  C   UNL     1      10.754  -2.422   0.878  1.00  0.00    +0.047 A 
ATOM     41  C   UNL     1      11.855  -1.549  -1.541  1.00  0.00    +0.004 A 
ATOM     42  C   UNL     1      11.771  -3.156   0.269  1.00  0.00    +0.004 A 
ATOM     43  C   UNL     1      12.319  -2.721  -0.940  1.00  0.00    +0.000 A 
ENDBRANCH  37  38
ENDBRANCH  34  37
ENDBRANCH  32  33
ENDBRANCH   6  27
TORSDOF 7
