REMARK SMILES O=C1NCc2cccc(c2)CNC(=O)c2coc(n2)-c2csc(n2)-c2cccc(n2)-c2nc(cs2)-c2nc1co2
REMARK SMILES IDX 1 1 2 2 3 3 4 4 5 5 6 6 7 7 8 8 9 9 10 10 11 11 12 12 13 13
REMARK SMILES IDX 14 14 15 15 16 16 17 17 18 18 19 19 20 20 21 21 22 22 23 23
REMARK SMILES IDX 24 24 25 25 26 26 27 27 28 28 29 29 30 30 31 31 32 32 33 33
REMARK SMILES IDX 34 34 35 35 36 36 37 37 38 38 39 39 40 40
REMARK H PARENT 3 41 12 42
ROOT
ATOM      1  O   UNL     1      -4.251   4.475  -0.768  1.00  0.00    -0.267 OA
ATOM      2  C   UNL     1      -3.259   3.833  -0.440  1.00  0.00    +0.273 C 
ATOM      3  N   UNL     1      -3.288   2.511  -0.071  1.00  0.00    -0.347 N 
ATOM      4  C   UNL     1      -4.511   1.758  -0.043  1.00  0.00    +0.152 C 
ATOM      5  C   UNL     1      -4.283   0.369   0.488  1.00  0.00    -0.028 A 
ATOM      6  C   UNL     1      -4.247   0.137   1.870  1.00  0.00    +0.005 A 
ATOM      7  C   UNL     1      -4.009  -1.144   2.366  1.00  0.00    +0.001 A 
ATOM      8  C   UNL     1      -3.804  -2.207   1.487  1.00  0.00    +0.005 A 
ATOM      9  C   UNL     1      -3.836  -1.999   0.101  1.00  0.00    -0.028 A 
ATOM     10  C   UNL     1      -4.061  -0.704  -0.388  1.00  0.00    +0.011 A 
ATOM     11  C   UNL     1      -3.585  -3.143  -0.843  1.00  0.00    +0.152 C 
ATOM     12  N   UNL     1      -2.178  -3.364  -1.030  1.00  0.00    -0.347 N 
ATOM     13  C   UNL     1      -1.702  -4.407  -1.786  1.00  0.00    +0.273 C 
ATOM     14  O   UNL     1      -2.418  -5.226  -2.352  1.00  0.00    -0.267 OA
ATOM     15  C   UNL     1      -0.250  -4.446  -1.848  1.00  0.00    +0.167 A 
ATOM     16  C   UNL     1       0.518  -5.361  -2.524  1.00  0.00    +0.232 A 
ATOM     17  O   UNL     1       1.827  -5.046  -2.329  1.00  0.00    -0.442 OA
ATOM     18  C   UNL     1       1.800  -3.926  -1.527  1.00  0.00    +0.246 A 
ATOM     19  N   UNL     1       0.576  -3.536  -1.212  1.00  0.00    -0.203 NA
ATOM     20  C   UNL     1       3.105  -3.193  -1.037  1.00  0.00    +0.137 A 
ATOM     21  C   UNL     1       4.365  -3.634  -1.381  1.00  0.00    +0.101 A 
ATOM     22  S   UNL     1       5.546  -2.608  -0.685  1.00  0.00    -0.120 S 
ATOM     23  C   UNL     1       4.294  -1.646   0.020  1.00  0.00    +0.142 A 
ATOM     24  N   UNL     1       3.069  -2.067  -0.234  1.00  0.00    -0.229 NA
ATOM     25  C   UNL     1       4.640  -0.454   0.809  1.00  0.00    +0.100 A 
ATOM     26  C   UNL     1       5.600  -0.476   1.817  1.00  0.00    +0.031 A 
ATOM     27  C   UNL     1       5.862   0.696   2.519  1.00  0.00    +0.005 A 
ATOM     28  C   UNL     1       5.160   1.854   2.198  1.00  0.00    +0.031 A 
ATOM     29  C   UNL     1       4.213   1.802   1.177  1.00  0.00    +0.100 A 
ATOM     30  N   UNL     1       3.950   0.667   0.485  1.00  0.00    -0.243 NA
ATOM     31  C   UNL     1       3.421   2.974   0.775  1.00  0.00    +0.142 A 
ATOM     32  N   UNL     1       2.114   2.988   0.592  1.00  0.00    -0.229 NA
ATOM     33  C   UNL     1       1.700   4.241   0.177  1.00  0.00    +0.137 A 
ATOM     34  C   UNL     1       2.698   5.184   0.059  1.00  0.00    +0.101 A 
ATOM     35  S   UNL     1       4.206   4.485   0.473  1.00  0.00    -0.120 S 
ATOM     36  C   UNL     1       0.194   4.574  -0.139  1.00  0.00    +0.246 A 
ATOM     37  N   UNL     1      -0.791   3.699  -0.031  1.00  0.00    -0.203 NA
ATOM     38  C   UNL     1      -1.923   4.402  -0.403  1.00  0.00    +0.167 A 
ATOM     39  C   UNL     1      -1.570   5.692  -0.719  1.00  0.00    +0.232 A 
ATOM     40  O   UNL     1      -0.226   5.819  -0.555  1.00  0.00    -0.442 OA
ATOM     41  H   UNL     1      -2.403   2.072   0.170  1.00  0.00    +0.164 HD
ATOM     42  H   UNL     1      -1.494  -2.736  -0.615  1.00  0.00    +0.164 HD
ENDROOT
TORSDOF 0
