REMARK SMILES COc1cc(OC)c(C(F)(F)F)cc1NC(=O)Nc1cccc(-c2cn3ccnc3c(NCc3ccncc3)n2)c1
REMARK SMILES IDX 19 1 20 2 21 3 22 4 23 5 41 6 18 7 15 8 16 9 17 10 14 13
REMARK SMILES IDX 3 14 4 15 5 16 13 17 8 18 2 19 1 20 6 21 7 22 9 23 10 24
REMARK SMILES IDX 11 25 12 26 24 27 25 28 40 29 26 30 31 31 27 32 30 33 32 34
REMARK SMILES IDX 28 35 29 36 33 38 34 39 35 40 39 41 36 42 38 43 37 44
REMARK H PARENT 15 11 18 12 32 37
ROOT
ATOM      1  C   UNL     1       0.289   1.432  -1.643  1.00  0.00    +0.043 A 
ATOM      2  C   UNL     1      -0.350   2.374  -2.458  1.00  0.00    +0.026 A 
ATOM      3  C   UNL     1      -1.733   2.338  -2.633  1.00  0.00    +0.003 A 
ATOM      4  C   UNL     1      -2.490   1.357  -1.994  1.00  0.00    +0.010 A 
ATOM      5  C   UNL     1      -1.878   0.399  -1.175  1.00  0.00    +0.004 A 
ATOM      6  C   UNL     1      -0.483   0.462  -0.997  1.00  0.00    +0.036 A 
ENDROOT
BRANCH   1   7
ATOM      7  N   UNL     1       1.690   1.538  -1.514  1.00  0.00    -0.308 N 
ATOM      8  N   UNL     1       3.840   1.167  -0.870  1.00  0.00    -0.304 N 
ATOM      9  C   UNL     1       2.552   0.661  -0.871  1.00  0.00    +0.323 C 
ATOM     10  O   UNL     1       2.224  -0.411  -0.380  1.00  0.00    -0.248 OA
ATOM     11  H   UNL     1       3.981   2.106  -1.217  1.00  0.00    +0.172 HD
ATOM     12  H   UNL     1       2.121   2.310  -1.999  1.00  0.00    +0.171 HD
BRANCH   8  13
ATOM     13  C   UNL     1       5.023   0.568  -0.381  1.00  0.00    +0.086 A 
ATOM     14  C   UNL     1       6.200   1.340  -0.452  1.00  0.00    +0.146 A 
ATOM     15  C   UNL     1       7.411   0.812   0.011  1.00  0.00    +0.095 A 
ATOM     16  C   UNL     1       7.464  -0.481   0.546  1.00  0.00    +0.134 A 
ATOM     17  C   UNL     1       5.081  -0.721   0.149  1.00  0.00    +0.047 A 
ATOM     18  C   UNL     1       6.296  -1.256   0.616  1.00  0.00    +0.100 A 
BRANCH  14  19
ATOM     19  O   UNL     1       6.044   2.596  -0.996  1.00  0.00    -0.494 OA
ATOM     20  C   UNL     1       7.197   3.428  -1.059  1.00  0.00    +0.278 C 
ENDBRANCH  14  19
BRANCH  16  21
ATOM     21  O   UNL     1       8.599  -1.080   1.022  1.00  0.00    -0.496 OA
ATOM     22  C   UNL     1       9.811  -0.337   0.996  1.00  0.00    +0.278 C 
ENDBRANCH  16  21
BRANCH  18  23
ATOM     23  C   UNL     1       6.335  -2.654   1.186  1.00  0.00    +0.420 C 
ATOM     24  F   UNL     1       6.747  -2.691   2.485  1.00  0.00    -0.166 F 
ATOM     25  F   UNL     1       5.120  -3.276   1.180  1.00  0.00    -0.166 F 
ATOM     26  F   UNL     1       7.165  -3.488   0.498  1.00  0.00    -0.166 F 
ENDBRANCH  18  23
ENDBRANCH   8  13
ENDBRANCH   1   7
BRANCH   5  27
ATOM     27  C   UNL     1      -2.711  -0.626  -0.495  1.00  0.00    +0.089 C 
ATOM     28  C   UNL     1      -2.249  -1.887  -0.356  1.00  0.00    +0.122 C 
ATOM     29  N   UNL     1      -3.972  -0.231  -0.053  1.00  0.00    -0.226 NA
ATOM     30  N   UNL     1      -3.054  -2.814   0.270  1.00  0.00    -0.302 N 
ATOM     31  C   UNL     1      -4.754  -1.100   0.548  1.00  0.00    +0.170 C 
ATOM     32  C   UNL     1      -2.880  -4.138   0.564  1.00  0.00    +0.113 A 
ATOM     33  C   UNL     1      -4.292  -2.464   0.729  1.00  0.00    +0.180 A 
ATOM     34  N   UNL     1      -5.995  -0.723   0.998  1.00  0.00    -0.363 N 
ATOM     35  C   UNL     1      -4.045  -4.520   1.197  1.00  0.00    +0.132 A 
ATOM     36  N   UNL     1      -4.927  -3.469   1.297  1.00  0.00    -0.234 NA
ATOM     37  H   UNL     1      -6.551  -1.437   1.459  1.00  0.00    +0.162 HD
BRANCH  34  38
ATOM     38  C   UNL     1      -6.524   0.608   0.887  1.00  0.00    +0.150 C 
BRANCH  38  39
ATOM     39  C   UNL     1      -7.906   0.653   1.485  1.00  0.00    -0.026 A 
ATOM     40  C   UNL     1      -8.090   0.948   2.839  1.00  0.00    +0.025 A 
ATOM     41  C   UNL     1      -9.030   0.353   0.710  1.00  0.00    +0.025 A 
ATOM     42  C   UNL     1      -9.379   0.953   3.348  1.00  0.00    +0.111 A 
ATOM     43  C   UNL     1     -10.279   0.384   1.311  1.00  0.00    +0.111 A 
ATOM     44  N   UNL     1     -10.478   0.682   2.613  1.00  0.00    -0.265 NA
ENDBRANCH  38  39
ENDBRANCH  34  38
ENDBRANCH   5  27
TORSDOF 8
