REMARK SMILES CC1(C)Oc2ccc(C#N)cc2[C@@H](Oc2ccccn2)[C@]1(C)O
REMARK SMILES IDX 1 1 2 2 3 3 4 4 5 5 6 6 7 7 8 8 9 9 10 10 11 11 12 12 13 13
REMARK SMILES IDX 21 14 22 15 23 16 14 18 15 19 16 20 20 21 17 22 19 23 18 24
REMARK H PARENT 23 17
ROOT
ATOM      1  C   UNL     1       0.075  -0.022  -3.011  1.00  0.00    +0.060 C 
ATOM      2  C   UNL     1      -0.453  -1.113  -2.050  1.00  0.00    +0.136 C 
ATOM      3  C   UNL     1      -0.355  -2.448  -2.817  1.00  0.00    +0.060 C 
ATOM      4  O   UNL     1      -1.864  -0.904  -1.844  1.00  0.00    -0.484 OA
ATOM      5  C   UNL     1      -2.215   0.080  -0.966  1.00  0.00    +0.127 A 
ATOM      6  C   UNL     1      -3.547   0.494  -1.036  1.00  0.00    +0.048 A 
ATOM      7  C   UNL     1      -4.016   1.508  -0.200  1.00  0.00    +0.023 A 
ATOM      8  C   UNL     1      -3.149   2.113   0.711  1.00  0.00    +0.053 A 
ATOM      9  C   UNL     1      -3.619   3.162   1.568  1.00  0.00    +0.099 C 
ATOM     10  N   UNL     1      -3.995   4.012   2.263  1.00  0.00    -0.192 NA
ATOM     11  C   UNL     1      -1.818   1.686   0.786  1.00  0.00    +0.031 A 
ATOM     12  C   UNL     1      -1.341   0.648  -0.038  1.00  0.00    +0.039 A 
ATOM     13  C   UNL     1       0.101   0.189   0.063  1.00  0.00    +0.244 C 
ATOM     14  C   UNL     1       0.331  -1.160  -0.696  1.00  0.00    +0.142 C 
ATOM     15  C   UNL     1      -0.071  -2.363   0.179  1.00  0.00    +0.051 C 
ENDROOT
BRANCH  14  16
ATOM     16  O   UNL     1       1.730  -1.343  -1.004  1.00  0.00    -0.382 OA
ATOM     17  H   UNL     1       2.243  -0.903  -0.291  1.00  0.00    +0.211 HD
ENDBRANCH  14  16
BRANCH  13  18
ATOM     18  O   UNL     1       0.400   0.073   1.469  1.00  0.00    -0.466 OA
BRANCH  18  19
ATOM     19  C   UNL     1       1.695   0.362   1.832  1.00  0.00    +0.213 A 
ATOM     20  C   UNL     1       1.925   0.588   3.178  1.00  0.00    +0.068 A 
ATOM     21  N   UNL     1       2.665   0.351   0.893  1.00  0.00    -0.222 NA
ATOM     22  C   UNL     1       3.227   0.853   3.589  1.00  0.00    +0.007 A 
ATOM     23  C   UNL     1       3.921   0.617   1.323  1.00  0.00    +0.115 A 
ATOM     24  C   UNL     1       4.247   0.871   2.645  1.00  0.00    +0.020 A 
ENDBRANCH  18  19
ENDBRANCH  13  18
TORSDOF 3
