REMARK SMILES Cc1cc(N2CCC(NC(=O)OC(C)(C)C)CC2)cc2[n-]c(-c3c(NC[C@@H](O)c4cccc(Cl)c4)cc[n-]c3=O)nc12
REMARK SMILES IDX 1 1 2 2 3 3 4 4 19 5 20 6 21 7 22 8 41 9 42 10 5 11 6 12
REMARK SMILES IDX 18 13 7 14 17 15 8 16 9 17 10 18 11 19 12 21 13 22 14 23
REMARK SMILES IDX 15 24 16 25 23 26 24 27 39 28 36 29 38 30 40 31 37 32 25 33
REMARK SMILES IDX 26 35 27 36 28 37 29 39 30 40 35 41 31 42 33 43 32 44 34 45
REMARK H PARENT 9 20 25 34 28 38
ROOT
ATOM      1  C   UNL     1       0.167   4.775  -2.910  1.00  0.00    +0.044 C 
ATOM      2  C   UNL     1       0.320   3.440  -2.264  1.00  0.00    -0.046 A 
ATOM      3  C   UNL     1      -0.778   2.720  -1.754  1.00  0.00    +0.029 A 
ATOM      4  C   UNL     1      -0.657   1.461  -1.122  1.00  0.00    +0.037 A 
ATOM      5  C   UNL     1       0.617   0.889  -1.001  1.00  0.00    +0.029 A 
ATOM      6  C   UNL     1       1.722   1.593  -1.492  1.00  0.00    -0.036 A 
ATOM      7  N   UNL     1       3.044   1.278  -1.494  1.00  0.00    -0.435 NA
ATOM      8  C   UNL     1       3.737   2.347  -2.030  1.00  0.00    -0.047 A 
ATOM      9  N   UNL     1       2.826   3.256  -2.460  1.00  0.00    -0.435 NA
ATOM     10  C   UNL     1       1.584   2.851  -2.109  1.00  0.00    -0.035 A 
ENDROOT
BRANCH   4  11
ATOM     11  N   UNL     1      -1.814   0.818  -0.642  1.00  0.00    -0.371 N 
ATOM     12  C   UNL     1      -2.570   1.553   0.375  1.00  0.00    +0.118 C 
ATOM     13  C   UNL     1      -1.784  -0.638  -0.507  1.00  0.00    +0.118 C 
ATOM     14  C   UNL     1      -4.005   1.037   0.420  1.00  0.00    +0.046 C 
ATOM     15  C   UNL     1      -3.211  -1.177  -0.477  1.00  0.00    +0.046 C 
ATOM     16  C   UNL     1      -4.039  -0.482   0.605  1.00  0.00    +0.089 C 
BRANCH  16  17
ATOM     17  N   UNL     1      -5.411  -0.968   0.575  1.00  0.00    -0.319 N 
ATOM     18  C   UNL     1      -6.222  -1.008   1.666  1.00  0.00    +0.407 C 
ATOM     19  O   UNL     1      -5.901  -0.688   2.798  1.00  0.00    -0.225 OA
ATOM     20  H   UNL     1      -5.840  -1.212  -0.306  1.00  0.00    +0.167 HD
BRANCH  18  21
ATOM     21  O   UNL     1      -7.440  -1.453   1.279  1.00  0.00    -0.444 OA
BRANCH  21  22
ATOM     22  C   UNL     1      -8.515  -1.590   2.242  1.00  0.00    +0.106 C 
ATOM     23  C   UNL     1      -8.173  -2.626   3.319  1.00  0.00    +0.056 C 
ATOM     24  C   UNL     1      -9.706  -2.112   1.423  1.00  0.00    +0.056 C 
ATOM     25  C   UNL     1      -8.897  -0.236   2.850  1.00  0.00    +0.056 C 
ENDBRANCH  21  22
ENDBRANCH  18  21
ENDBRANCH  16  17
ENDBRANCH   4  11
BRANCH   8  26
ATOM     26  C   UNL     1       5.349   2.325  -2.272  1.00  0.00    +0.022 C 
ATOM     27  C   UNL     1       5.975   1.127  -2.439  1.00  0.00    +0.041 C 
ATOM     28  C   UNL     1       6.201   3.610  -2.205  1.00  0.00    +0.087 C 
ATOM     29  C   UNL     1       7.406   1.115  -2.639  1.00  0.00    +0.002 C 
ATOM     30  N   UNL     1       7.539   3.519  -2.413  1.00  0.00    -0.629 NA
ATOM     31  O   UNL     1       5.681   4.691  -1.926  1.00  0.00    -0.315 OA
ATOM     32  C   UNL     1       8.054   2.286  -2.614  1.00  0.00    -0.134 C 
BRANCH  27  33
ATOM     33  N   UNL     1       5.321  -0.114  -2.422  1.00  0.00    -0.382 N 
ATOM     34  H   UNL     1       4.300   0.078  -2.412  1.00  0.00    +0.160 HD
BRANCH  33  35
ATOM     35  C   UNL     1       5.663  -1.180  -1.490  1.00  0.00    +0.149 C 
BRANCH  35  36
ATOM     36  C   UNL     1       5.221  -0.826  -0.048  1.00  0.00    +0.163 C 
BRANCH  36  37
ATOM     37  O   UNL     1       3.791  -0.851   0.056  1.00  0.00    -0.387 OA
ATOM     38  H   UNL     1       3.506  -0.046  -0.470  1.00  0.00    +0.211 HD
ENDBRANCH  36  37
BRANCH  36  39
ATOM     39  C   UNL     1       5.808  -1.810   0.950  1.00  0.00    -0.016 A 
ATOM     40  C   UNL     1       7.049  -1.530   1.546  1.00  0.00    +0.006 A 
ATOM     41  C   UNL     1       5.162  -3.015   1.268  1.00  0.00    +0.027 A 
ATOM     42  C   UNL     1       7.628  -2.427   2.445  1.00  0.00    +0.002 A 
ATOM     43  C   UNL     1       5.743  -3.907   2.167  1.00  0.00    +0.041 A 
ATOM     44  C   UNL     1       6.973  -3.618   2.757  1.00  0.00    +0.020 A 
ATOM     45 Cl   UNL     1       4.943  -5.383   2.553  1.00  0.00    -0.084 Cl
ENDBRANCH  36  39
ENDBRANCH  35  36
ENDBRANCH  33  35
ENDBRANCH  27  33
ENDBRANCH   8  26
TORSDOF 10
