REMARK SMILES COc1cc(-n2c(Nc3cc(NC(=O)c4cccc(C(F)(F)F)c4)ccc3C)nc3ccccc32)ncn1
REMARK SMILES IDX 9 1 10 2 11 3 25 4 26 5 27 6 28 7 8 8 7 10 6 11 35 12 29 13
REMARK SMILES IDX 34 14 30 15 33 16 31 17 32 18 5 19 3 20 4 21 38 22 37 23
REMARK SMILES IDX 36 24 2 25 1 26 12 27 13 28 14 29 15 31 16 32 24 33 17 34
REMARK SMILES IDX 19 35 18 36 20 37 21 38 22 39 23 40
REMARK H PARENT 8 9 12 30
ROOT
ATOM      1  C   UNL     1      -0.207   1.564   0.465  1.00  0.00    +0.046 A 
ATOM      2  C   UNL     1       0.986   0.854   0.241  1.00  0.00    +0.052 A 
ATOM      3  C   UNL     1       2.249   1.461   0.316  1.00  0.00    +0.043 A 
ATOM      4  C   UNL     1       2.327   2.815   0.615  1.00  0.00    +0.026 A 
ATOM      5  C   UNL     1       1.162   3.549   0.836  1.00  0.00    +0.008 A 
ATOM      6  C   UNL     1      -0.104   2.944   0.759  1.00  0.00    -0.027 A 
ATOM      7  C   UNL     1      -1.318   3.802   0.998  1.00  0.00    +0.046 C 
ENDROOT
BRANCH   1   8
ATOM      8  N   UNL     1      -1.480   0.959   0.370  1.00  0.00    -0.325 N 
ATOM      9  H   UNL     1      -2.243   1.548   0.699  1.00  0.00    +0.170 HD
BRANCH   8  10
ATOM     10  C   UNL     1      -1.823  -0.293  -0.033  1.00  0.00    +0.214 A 
ATOM     11  N   UNL     1      -3.170  -0.699  -0.062  1.00  0.00    -0.262 N 
ATOM     12  C   UNL     1      -3.168  -2.053  -0.401  1.00  0.00    +0.076 A 
ATOM     13  N   UNL     1      -1.040  -1.246  -0.492  1.00  0.00    -0.212 NA
ATOM     14  C   UNL     1      -4.142  -3.070  -0.436  1.00  0.00    +0.029 A 
ATOM     15  C   UNL     1      -1.837  -2.329  -0.707  1.00  0.00    +0.091 A 
ATOM     16  C   UNL     1      -3.751  -4.345  -0.864  1.00  0.00    +0.002 A 
ATOM     17  C   UNL     1      -1.463  -3.611  -1.143  1.00  0.00    +0.031 A 
ATOM     18  C   UNL     1      -2.434  -4.611  -1.227  1.00  0.00    +0.002 A 
BRANCH  11  19
ATOM     19  C   UNL     1      -4.296   0.151   0.207  1.00  0.00    +0.147 A 
ATOM     20  C   UNL     1      -6.565   0.704   0.054  1.00  0.00    +0.218 A 
ATOM     21  C   UNL     1      -5.552  -0.175  -0.259  1.00  0.00    +0.116 A 
ATOM     22  N   UNL     1      -6.393   1.830   0.763  1.00  0.00    -0.202 NA
ATOM     23  C   UNL     1      -5.139   2.077   1.144  1.00  0.00    +0.228 A 
ATOM     24  N   UNL     1      -4.071   1.305   0.889  1.00  0.00    -0.218 NA
BRANCH  20  25
ATOM     25  O   UNL     1      -7.819   0.371  -0.420  1.00  0.00    -0.481 OA
ATOM     26  C   UNL     1      -8.824   1.320  -0.072  1.00  0.00    +0.280 C 
ENDBRANCH  20  25
ENDBRANCH  11  19
ENDBRANCH   8  10
ENDBRANCH   1   8
BRANCH   3  27
ATOM     27  N   UNL     1       3.370   0.640   0.066  1.00  0.00    -0.322 N 
ATOM     28  C   UNL     1       4.703   0.996   0.125  1.00  0.00    +0.255 C 
ATOM     29  O   UNL     1       5.167   2.071   0.487  1.00  0.00    -0.269 OA
ATOM     30  H   UNL     1       3.153  -0.326  -0.143  1.00  0.00    +0.170 HD
BRANCH  28  31
ATOM     31  C   UNL     1       5.658  -0.081  -0.266  1.00  0.00    +0.040 A 
ATOM     32  C   UNL     1       5.367  -0.987  -1.293  1.00  0.00    +0.014 A 
ATOM     33  C   UNL     1       6.891  -0.154   0.397  1.00  0.00    +0.027 A 
ATOM     34  C   UNL     1       6.293  -1.974  -1.635  1.00  0.00    +0.001 A 
ATOM     35  C   UNL     1       7.825  -1.148   0.065  1.00  0.00    +0.056 A 
ATOM     36  C   UNL     1       7.513  -2.055  -0.960  1.00  0.00    +0.013 A 
BRANCH  35  37
ATOM     37  C   UNL     1       9.157  -1.211   0.771  1.00  0.00    +0.416 C 
ATOM     38  F   UNL     1      10.091  -0.411   0.190  1.00  0.00    -0.166 F 
ATOM     39  F   UNL     1       9.089  -0.827   2.076  1.00  0.00    -0.166 F 
ATOM     40  F   UNL     1       9.694  -2.464   0.783  1.00  0.00    -0.166 F 
ENDBRANCH  35  37
ENDBRANCH  28  31
ENDBRANCH   3  27
TORSDOF 7
