REMARK SMILES O=C(Nc1ccc(Cl)c(Cl)c1)c1cc(N2CCC([NH+]3CCCC3)CC2)cc(C(F)(F)F)c1
REMARK SMILES IDX 12 1 13 2 14 3 26 4 27 5 32 6 2 7 1 8 3 9 4 11 5 12 11 13
REMARK SMILES IDX 6 14 9 15 7 16 10 17 8 18 15 19 16 20 25 21 17 22 24 23
REMARK SMILES IDX 18 24 19 25 20 26 23 27 21 28 22 29 28 31 29 32 30 33 31 34
REMARK H PARENT 3 10 19 30
ROOT
ATOM      1  C   UNL     1       2.438  -0.758   0.238  1.00  0.00    +0.042 A 
ATOM      2  C   UNL     1       1.088  -0.371   0.296  1.00  0.00    +0.039 A 
ATOM      3  C   UNL     1       0.111  -1.138   0.951  1.00  0.00    +0.038 A 
ATOM      4  C   UNL     1       0.557  -2.317   1.568  1.00  0.00    +0.039 A 
ATOM      5  C   UNL     1       1.903  -2.733   1.525  1.00  0.00    +0.058 A 
ATOM      6  C   UNL     1       2.841  -1.951   0.838  1.00  0.00    +0.027 A 
ENDROOT
BRANCH   1   7
ATOM      7  C   UNL     1       3.379   0.117  -0.521  1.00  0.00    +0.255 C 
ATOM      8  O   UNL     1       2.920   0.774  -1.449  1.00  0.00    -0.269 OA
ATOM      9  N   UNL     1       4.685   0.130  -0.066  1.00  0.00    -0.322 N 
ATOM     10  H   UNL     1       4.887  -0.373   0.788  1.00  0.00    +0.170 HD
BRANCH   9  11
ATOM     11  C   UNL     1       5.777   0.824  -0.633  1.00  0.00    +0.043 A 
ATOM     12  C   UNL     1       7.002   0.743   0.041  1.00  0.00    +0.028 A 
ATOM     13  C   UNL     1       5.705   1.568  -1.814  1.00  0.00    +0.048 A 
ATOM     14  C   UNL     1       8.134   1.400  -0.453  1.00  0.00    +0.024 A 
ATOM     15  C   UNL     1       6.837   2.228  -2.312  1.00  0.00    +0.061 A 
ATOM     16  C   UNL     1       8.054   2.145  -1.630  1.00  0.00    +0.059 A 
ATOM     17 Cl   UNL     1       6.661   3.129  -3.778  1.00  0.00    -0.083 Cl
ATOM     18 Cl   UNL     1       9.487   2.932  -2.184  1.00  0.00    -0.083 Cl
ENDBRANCH   9  11
ENDBRANCH   1   7
BRANCH   3  19
ATOM     19  N   UNL     1      -1.224  -0.746   0.975  1.00  0.00    -0.371 N 
ATOM     20  C   UNL     1      -2.295  -1.718   1.187  1.00  0.00    +0.122 C 
ATOM     21  C   UNL     1      -1.556   0.674   0.865  1.00  0.00    +0.122 C 
ATOM     22  C   UNL     1      -3.474  -1.350   0.291  1.00  0.00    +0.086 C 
ATOM     23  C   UNL     1      -2.983   0.930   1.329  1.00  0.00    +0.086 C 
ATOM     24  C   UNL     1      -3.996   0.070   0.565  1.00  0.00    +0.187 C 
BRANCH  24  25
ATOM     25  N   UNL     1      -4.389   0.715  -0.768  1.00  0.00    -0.332 N 
ATOM     26  C   UNL     1      -5.448  -0.055  -1.560  1.00  0.00    +0.262 C 
ATOM     27  C   UNL     1      -4.883   2.149  -0.692  1.00  0.00    +0.262 C 
ATOM     28  C   UNL     1      -6.490   0.976  -1.958  1.00  0.00    +0.067 C 
ATOM     29  C   UNL     1      -5.747   2.292  -1.925  1.00  0.00    +0.067 C 
ATOM     30  H   UNL     1      -3.546   0.729  -1.361  1.00  0.00    +0.348 HD
ENDBRANCH  24  25
ENDBRANCH   3  19
BRANCH   5  31
ATOM     31  C   UNL     1       2.313  -4.034   2.175  1.00  0.00    +0.416 C 
ATOM     32  F   UNL     1       3.628  -4.056   2.527  1.00  0.00    -0.166 F 
ATOM     33  F   UNL     1       2.120  -5.100   1.354  1.00  0.00    -0.166 F 
ATOM     34  F   UNL     1       1.615  -4.299   3.312  1.00  0.00    -0.166 F 
ENDBRANCH   5  31
TORSDOF 5
