REMARK SMILES Nc1nc([O-])c(-c2ccccc2)o1
REMARK SMILES IDX 2 1 3 2 4 3 5 4 6 5 13 6 1 7 7 10 8 11 12 12 9 13 11 14
REMARK SMILES IDX 10 15
REMARK H PARENT 1 8 1 9
ROOT
ATOM      1  C   UNL     1       2.923   0.266   0.176  1.00  0.00    +0.291 A 
ATOM      2  N   UNL     1       2.854   0.290   1.480  1.00  0.00    -0.210 NA
ATOM      3  C   UNL     1       1.517   0.135   1.721  1.00  0.00    +0.038 A 
ATOM      4  O   UNL     1       1.002   0.105   3.027  1.00  0.00    -0.856 OA
ATOM      5  C   UNL     1       0.803   0.020   0.539  1.00  0.00    +0.149 A 
ATOM      6  O   UNL     1       1.739   0.108  -0.473  1.00  0.00    -0.424 OA
ENDROOT
BRANCH   1   7
ATOM      7  N   UNL     1       4.004   0.377  -0.594  1.00  0.00    -0.353 N 
ATOM      8  H   UNL     1       3.932   0.343  -1.595  1.00  0.00    +0.161 HD
ATOM      9  H   UNL     1       4.899   0.495  -0.145  1.00  0.00    +0.161 HD
ENDBRANCH   1   7
BRANCH   5  10
ATOM     10  C   UNL     1      -0.587  -0.157   0.111  1.00  0.00    +0.018 A 
ATOM     11  C   UNL     1      -1.629  -0.260   1.042  1.00  0.00    +0.012 A 
ATOM     12  C   UNL     1      -0.922  -0.231  -1.252  1.00  0.00    +0.012 A 
ATOM     13  C   UNL     1      -2.956  -0.429   0.633  1.00  0.00    +0.001 A 
ATOM     14  C   UNL     1      -2.248  -0.401  -1.667  1.00  0.00    +0.001 A 
ATOM     15  C   UNL     1      -3.266  -0.500  -0.722  1.00  0.00    +0.000 A 
ENDBRANCH   5  10
TORSDOF 2
