REMARK SMILES C[C@@H]1CCC[C@H](C)N1[N-]C(=O)c1ccc(Cl)c(S(=O)(=O)[N-]C(=O)c2ccc3cc(C(F)(F)P(=O)([O-])[O-])ccc3c2)c1
REMARK SMILES IDX 18 1 19 2 20 3 17 4 12 5 13 6 41 7 14 8 15 9 16 10 10 11
REMARK SMILES IDX 11 12 9 13 8 14 2 15 3 16 4 17 6 18 5 19 1 20 7 21 21 22
REMARK SMILES IDX 22 23 23 24 24 25 25 26 40 27 26 28 39 29 27 30 38 31 28 32
REMARK SMILES IDX 37 33 29 34 30 35 31 36 32 37 33 38 34 39 35 40 36 41
REMARK H PARENT
ROOT
ATOM      1  S   UNL     1       0.103   2.882   0.447  1.00  0.00    +0.126 S 
ATOM      2  O   UNL     1      -0.353   4.117  -0.192  1.00  0.00    -0.240 OA
ATOM      3  O   UNL     1      -0.040   2.863   1.903  1.00  0.00    -0.240 OA
ENDROOT
BRANCH   1   4
ATOM      4  C   UNL     1      -1.221   1.730  -0.090  1.00  0.00    +0.071 A 
ATOM      5  C   UNL     1      -3.088   0.257   0.490  1.00  0.00    +0.001 A 
ATOM      6  C   UNL     1      -3.255  -0.019  -0.876  1.00  0.00    +0.012 A 
ATOM      7  C   UNL     1      -2.063   1.140   0.877  1.00  0.00    +0.030 A 
ATOM      8  C   UNL     1      -2.424   0.570  -1.832  1.00  0.00    +0.022 A 
ATOM      9  C   UNL     1      -1.405   1.449  -1.449  1.00  0.00    +0.058 A 
ATOM     10 Cl   UNL     1      -0.461   2.112  -2.738  1.00  0.00    -0.083 Cl
BRANCH   5  11
ATOM     11  C   UNL     1      -3.996  -0.364   1.529  1.00  0.00    +0.093 C 
ATOM     12  O   UNL     1      -3.971   0.109   2.665  1.00  0.00    -0.314 OA
BRANCH  11  13
ATOM     13  N   UNL     1      -4.730  -1.399   1.073  1.00  0.00    -0.584 NA
BRANCH  13  14
ATOM     14  N   UNL     1      -5.760  -1.974   2.023  1.00  0.00    -0.377 NA
ATOM     15  C   UNL     1      -6.805  -2.667   1.246  1.00  0.00    +0.038 C 
ATOM     16  C   UNL     1      -7.654  -3.594   2.130  1.00  0.00    +0.018 C 
ATOM     17  C   UNL     1      -6.816  -4.671   2.814  1.00  0.00    +0.003 C 
ATOM     18  C   UNL     1      -5.102  -2.797   3.062  1.00  0.00    +0.038 C 
ATOM     19  C   UNL     1      -5.338  -4.304   2.880  1.00  0.00    +0.018 C 
ATOM     20  C   UNL     1      -7.725  -1.639   0.573  1.00  0.00    +0.023 C 
ATOM     21  C   UNL     1      -5.569  -2.317   4.442  1.00  0.00    +0.023 C 
ENDBRANCH  13  14
ENDBRANCH  11  13
ENDBRANCH   5  11
ENDBRANCH   1   4
BRANCH   1  22
ATOM     22  N   UNL     1       1.454   2.240  -0.099  1.00  0.00    -0.538 NA
BRANCH  22  23
ATOM     23  C   UNL     1       2.581   2.951  -0.009  1.00  0.00    +0.094 C 
ATOM     24  O   UNL     1       2.798   3.968   0.648  1.00  0.00    -0.314 OA
BRANCH  23  25
ATOM     25  C   UNL     1       3.736   2.399  -0.818  1.00  0.00    +0.001 A 
ATOM     26  C   UNL     1       3.610   1.279  -1.651  1.00  0.00    +0.011 A 
ATOM     27  C   UNL     1       4.989   3.035  -0.744  1.00  0.00    +0.019 A 
ATOM     28  C   UNL     1       4.707   0.809  -2.386  1.00  0.00    +0.009 A 
ATOM     29  C   UNL     1       6.104   2.573  -1.480  1.00  0.00    -0.018 A 
ATOM     30  C   UNL     1       5.958   1.443  -2.311  1.00  0.00    -0.018 A 
ATOM     31  C   UNL     1       7.362   3.202  -1.415  1.00  0.00    +0.009 A 
ATOM     32  C   UNL     1       7.066   0.980  -3.048  1.00  0.00    +0.019 A 
ATOM     33  C   UNL     1       8.456   2.728  -2.155  1.00  0.00    +0.011 A 
ATOM     34  C   UNL     1       8.324   1.611  -2.981  1.00  0.00    +0.026 A 
BRANCH  34  35
ATOM     35  C   UNL     1       9.468   1.050  -3.805  1.00  0.00    +0.296 C 
ATOM     36  F   UNL     1       9.192   1.033  -5.150  1.00  0.00    -0.196 F 
ATOM     37  F   UNL     1       9.770  -0.248  -3.474  1.00  0.00    -0.196 F 
BRANCH  35  38
ATOM     38  P   UNL     1      11.270   1.892  -3.783  1.00  0.00    +0.010 P 
ATOM     39  O   UNL     1      11.724   1.829  -2.317  1.00  0.00    -0.350 OA
ATOM     40  O   UNL     1      12.146   1.055  -4.728  1.00  0.00    -0.806 OA
ATOM     41  O   UNL     1      11.046   3.330  -4.275  1.00  0.00    -0.806 OA
ENDBRANCH  35  38
ENDBRANCH  34  35
ENDBRANCH  23  25
ENDBRANCH  22  23
ENDBRANCH   1  22
TORSDOF 9
