REMARK SMILES CC[NH+]1CC[NH+](CCCOc2cc3ncc(C#N)c(Nc4ccc(Sc5nccn5C)c(Cl)c4)c3cc2OC)CC1
REMARK SMILES IDX 10 1 9 2 8 3 7 4 6 5 3 6 4 7 41 8 5 9 40 10 2 13 1 14 11 15
REMARK SMILES IDX 12 16 37 17 13 18 36 19 14 20 35 21 15 22 19 23 16 24 17 25
REMARK SMILES IDX 18 26 38 27 39 28 20 29 21 31 22 32 34 33 23 34 32 35 24 36
REMARK SMILES IDX 33 37 25 38 26 39 27 40 30 41 28 42 29 43 31 44
REMARK H PARENT 3 11 6 12 20 30
ROOT
ATOM      1  O   UNL     1      -3.132  -0.907  -1.250  1.00  0.00    -0.489 OA
ENDROOT
BRANCH   1   2
ATOM      2  C   UNL     1      -3.519  -2.286  -1.232  1.00  0.00    +0.235 C 
BRANCH   2   3
ATOM      3  C   UNL     1      -4.116  -2.563   0.147  1.00  0.00    +0.103 C 
BRANCH   3   4
ATOM      4  C   UNL     1      -3.119  -2.490   1.312  1.00  0.00    +0.266 C 
BRANCH   4   5
ATOM      5  N   UNL     1      -2.358  -1.178   1.415  1.00  0.00    -0.326 N 
ATOM      6  N   UNL     1      -1.573   0.954   3.432  1.00  0.00    -0.326 N 
ATOM      7  C   UNL     1      -0.553   0.091   2.670  1.00  0.00    +0.324 C 
ATOM      8  C   UNL     1      -3.030   0.629   3.095  1.00  0.00    +0.324 C 
ATOM      9  C   UNL     1      -1.136  -1.296   2.332  1.00  0.00    +0.324 C 
ATOM     10  C   UNL     1      -3.203   0.070   1.666  1.00  0.00    +0.324 C 
ATOM     11  H   UNL     1      -1.444   0.728   4.431  1.00  0.00    +0.348 HD
ATOM     12  H   UNL     1      -1.969  -1.050   0.458  1.00  0.00    +0.348 HD
BRANCH   6  13
ATOM     13  C   UNL     1      -1.218   2.432   3.322  1.00  0.00    +0.259 C 
ATOM     14  C   UNL     1      -1.792   3.204   4.497  1.00  0.00    +0.071 C 
ENDBRANCH   6  13
ENDBRANCH   4   5
ENDBRANCH   3   4
ENDBRANCH   2   3
ENDBRANCH   1   2
BRANCH   1  15
ATOM     15  C   UNL     1      -2.163  -0.635  -2.179  1.00  0.00    +0.163 A 
ATOM     16  C   UNL     1      -2.516   0.137  -3.287  1.00  0.00    +0.079 A 
ATOM     17  C   UNL     1      -0.833  -0.976  -1.947  1.00  0.00    +0.161 A 
ATOM     18  C   UNL     1      -1.554   0.649  -4.149  1.00  0.00    +0.076 A 
ATOM     19  C   UNL     1       0.135  -0.461  -2.800  1.00  0.00    +0.063 A 
ATOM     20  N   UNL     1      -1.948   1.384  -5.196  1.00  0.00    -0.255 NA
ATOM     21  C   UNL     1      -0.194   0.424  -3.858  1.00  0.00    +0.029 A 
ATOM     22  C   UNL     1      -1.000   1.940  -5.990  1.00  0.00    +0.133 A 
ATOM     23  C   UNL     1       0.785   1.124  -4.629  1.00  0.00    +0.068 A 
ATOM     24  C   UNL     1       0.360   1.859  -5.744  1.00  0.00    +0.094 A 
ATOM     25  C   UNL     1       1.272   2.564  -6.586  1.00  0.00    +0.103 C 
ATOM     26  N   UNL     1       2.043   3.120  -7.250  1.00  0.00    -0.192 NA
BRANCH  17  27
ATOM     27  O   UNL     1      -0.548  -1.720  -0.829  1.00  0.00    -0.493 OA
ATOM     28  C   UNL     1       0.615  -2.549  -0.961  1.00  0.00    +0.278 C 
ENDBRANCH  17  27
BRANCH  23  29
ATOM     29  N   UNL     1       2.130   1.234  -4.166  1.00  0.00    -0.354 N 
ATOM     30  H   UNL     1       2.862   1.260  -4.875  1.00  0.00    +0.167 HD
BRANCH  29  31
ATOM     31  C   UNL     1       2.556   1.513  -2.848  1.00  0.00    +0.040 A 
ATOM     32  C   UNL     1       3.748   0.968  -2.369  1.00  0.00    +0.027 A 
ATOM     33  C   UNL     1       1.724   2.189  -1.944  1.00  0.00    +0.047 A 
ATOM     34  C   UNL     1       4.058   1.026  -1.002  1.00  0.00    +0.019 A 
ATOM     35  C   UNL     1       2.023   2.240  -0.580  1.00  0.00    +0.057 A 
ATOM     36  C   UNL     1       3.178   1.623  -0.085  1.00  0.00    +0.034 A 
ATOM     37 Cl   UNL     1       0.872   3.036   0.441  1.00  0.00    -0.083 Cl
BRANCH  36  38
ATOM     38  S   UNL     1       3.568   1.596   1.662  1.00  0.00    -0.050 SA
BRANCH  38  39
ATOM     39  C   UNL     1       3.407  -0.107   1.954  1.00  0.00    +0.172 A 
ATOM     40  N   UNL     1       2.291  -0.811   1.859  1.00  0.00    -0.231 NA
ATOM     41  N   UNL     1       4.463  -0.876   2.373  1.00  0.00    -0.329 N 
ATOM     42  C   UNL     1       2.668  -2.095   2.182  1.00  0.00    +0.132 A 
ATOM     43  C   UNL     1       4.000  -2.156   2.510  1.00  0.00    +0.108 A 
ATOM     44  C   UNL     1       5.824  -0.455   2.620  1.00  0.00    +0.152 C 
ENDBRANCH  38  39
ENDBRANCH  36  38
ENDBRANCH  29  31
ENDBRANCH  23  29
ENDBRANCH   1  15
TORSDOF 11
