REMARK SMILES CC(=O)O[C@@H]1CC[C@@]2(C)[C@@H](CC[C@]3(C)[C@@H]2CC=C2[C@@H]4CC(C)(C)CC[C@]4(C)CC[C@]23C(=O)[O-])[C@]1(C)C(=O)[O-]
REMARK SMILES IDX 5 1 6 2 7 3 8 4 9 5 10 6 11 7 12 8 13 9 14 10 15 11 16 12
REMARK SMILES IDX 17 13 18 14 19 15 20 16 21 17 22 18 23 19 24 20 25 21 26 22
REMARK SMILES IDX 27 23 28 24 29 25 30 26 34 27 35 28 4 29 2 30 3 31 1 32
REMARK SMILES IDX 36 33 37 34 38 35 31 36 32 37 33 38
REMARK H PARENT
ROOT
ATOM      1  C   UNL     1       5.212   0.387   1.004  1.00  0.00    +0.188 C 
ATOM      2  C   UNL     1       4.256   0.940   2.061  1.00  0.00    +0.047 C 
ATOM      3  C   UNL     1       2.909   1.406   1.491  1.00  0.00    +0.011 C 
ATOM      4  C   UNL     1       2.411   0.637   0.217  1.00  0.00    -0.025 C 
ATOM      5  C   UNL     1       2.895   1.444  -1.017  1.00  0.00    +0.012 C 
ATOM      6  C   UNL     1       3.039  -0.804   0.260  1.00  0.00    +0.010 C 
ATOM      7  C   UNL     1       2.387  -1.747  -0.770  1.00  0.00    +0.006 C 
ATOM      8  C   UNL     1       0.872  -1.865  -0.555  1.00  0.00    +0.009 C 
ATOM      9  C   UNL     1       0.107  -0.516  -0.655  1.00  0.00    -0.014 C 
ATOM     10  C   UNL     1       0.172  -0.046  -2.140  1.00  0.00    +0.013 C 
ATOM     11  C   UNL     1       0.813   0.529   0.288  1.00  0.00    +0.006 C 
ATOM     12  C   UNL     1       0.090   1.894   0.224  1.00  0.00    +0.032 C 
ATOM     13  C   UNL     1      -1.406   1.825   0.185  1.00  0.00    -0.026 C 
ATOM     14  C   UNL     1      -2.131   0.703   0.009  1.00  0.00    -0.058 C 
ATOM     15  C   UNL     1      -3.662   0.789   0.054  1.00  0.00    +0.022 C 
ATOM     16  C   UNL     1      -4.212   0.383   1.441  1.00  0.00    +0.015 C 
ATOM     17  C   UNL     1      -5.750   0.447   1.559  1.00  0.00    -0.035 C 
ATOM     18  C   UNL     1      -6.250   1.902   1.507  1.00  0.00    +0.011 C 
ATOM     19  C   UNL     1      -6.171  -0.147   2.917  1.00  0.00    +0.011 C 
ATOM     20  C   UNL     1      -6.375  -0.397   0.433  1.00  0.00    +0.007 C 
ATOM     21  C   UNL     1      -5.880  -0.002  -0.957  1.00  0.00    +0.008 C 
ATOM     22  C   UNL     1      -4.336   0.021  -1.114  1.00  0.00    -0.026 C 
ATOM     23  C   UNL     1      -4.048   0.740  -2.458  1.00  0.00    +0.012 C 
ATOM     24  C   UNL     1      -3.785  -1.423  -1.160  1.00  0.00    +0.008 C 
ATOM     25  C   UNL     1      -2.257  -1.468  -1.311  1.00  0.00    +0.019 C 
ATOM     26  C   UNL     1      -1.457  -0.682  -0.219  1.00  0.00    +0.037 C 
ATOM     27  C   UNL     1       4.624  -0.844   0.252  1.00  0.00    +0.047 C 
ATOM     28  C   UNL     1       5.225  -0.909  -1.170  1.00  0.00    +0.022 C 
ENDROOT
BRANCH   1  29
ATOM     29  O   UNL     1       6.472   0.103   1.652  1.00  0.00    -0.462 OA
BRANCH  29  30
ATOM     30  C   UNL     1       7.621   0.404   1.003  1.00  0.00    +0.302 C 
ATOM     31  O   UNL     1       7.741   1.125   0.020  1.00  0.00    -0.253 OA
ATOM     32  C   UNL     1       8.773  -0.248   1.705  1.00  0.00    +0.139 C 
ENDBRANCH  29  30
ENDBRANCH   1  29
BRANCH  27  33
ATOM     33  C   UNL     1       5.139  -2.109   1.031  1.00  0.00    +0.051 C 
ATOM     34  O   UNL     1       4.625  -2.319   2.165  1.00  0.00    -0.549 OA
ATOM     35  O   UNL     1       6.058  -2.780   0.468  1.00  0.00    -0.549 OA
ENDBRANCH  27  33
BRANCH  26  36
ATOM     36  C   UNL     1      -1.579  -1.507   1.149  1.00  0.00    +0.052 C 
ATOM     37  O   UNL     1      -1.949  -2.716   1.039  1.00  0.00    -0.549 OA
ATOM     38  O   UNL     1      -1.337  -0.874   2.219  1.00  0.00    -0.549 OA
ENDBRANCH  26  36
TORSDOF 4
