REMARK SMILES CO[C@H]1O[C@H](COc2ccc(-c3ccccc3)cc2)[C@@H](O)[C@H](O)[C@H]1Oc1ccc2c(c1)-c1ccccc1S2(=O)=O
REMARK SMILES IDX 6 1 5 2 3 3 4 4 24 5 22 6 20 7 2 8 1 9 25 10 26 11 27 12
REMARK SMILES IDX 31 13 28 14 30 15 29 16 32 17 38 18 33 19 37 20 39 21 40 22
REMARK SMILES IDX 34 23 36 24 35 25 23 26 21 28 7 30 8 31 9 32 19 33 10 34
REMARK SMILES IDX 18 35 11 36 12 37 13 38 17 39 14 40 16 41 15 42
REMARK H PARENT 23 27 21 29
ROOT
ATOM      1  C   UNL     1       2.106   0.541  -0.140  1.00  0.00    +0.264 C 
ENDROOT
BRANCH   1   2
ATOM      2  C   UNL     1       0.734   0.855   0.482  1.00  0.00    +0.190 C 
ATOM      3  C   UNL     1      -1.559   1.109  -0.128  1.00  0.00    +0.294 C 
ATOM      4  O   UNL     1      -0.236   0.796  -0.576  1.00  0.00    -0.339 OA
ATOM      5  C   UNL     1      -2.031   0.076   0.917  1.00  0.00    +0.260 C 
ATOM      6  C   UNL     1      -1.057   0.070   2.098  1.00  0.00    +0.191 C 
ATOM      7  C   UNL     1       0.387  -0.127   1.615  1.00  0.00    +0.179 C 
BRANCH   3   8
ATOM      8  O   UNL     1      -1.617   2.437   0.401  1.00  0.00    -0.352 OA
ATOM      9  C   UNL     1      -1.528   3.423  -0.619  1.00  0.00    +0.198 C 
ENDBRANCH   3   8
BRANCH   5  10
ATOM     10  O   UNL     1      -3.351   0.436   1.376  1.00  0.00    -0.482 OA
BRANCH  10  11
ATOM     11  C   UNL     1      -4.331  -0.428   0.971  1.00  0.00    +0.120 A 
ATOM     12  C   UNL     1      -4.312  -1.788   1.330  1.00  0.00    +0.048 A 
ATOM     13  C   UNL     1      -5.400   0.125   0.254  1.00  0.00    +0.056 A 
ATOM     14  C   UNL     1      -5.343  -2.635   0.930  1.00  0.00    +0.025 A 
ATOM     15  C   UNL     1      -6.437  -0.703  -0.151  1.00  0.00    +0.006 A 
ATOM     16  C   UNL     1      -6.369  -2.066   0.196  1.00  0.00    +0.080 A 
ATOM     17  C   UNL     1      -7.643  -0.361  -0.910  1.00  0.00    +0.002 A 
ATOM     18  S   UNL     1      -7.784  -2.910  -0.425  1.00  0.00    +0.207 S 
ATOM     19  C   UNL     1      -8.037   0.875  -1.404  1.00  0.00    +0.010 A 
ATOM     20  C   UNL     1      -8.485  -1.464  -1.142  1.00  0.00    +0.080 A 
ATOM     21  O   UNL     1      -8.607  -3.319   0.691  1.00  0.00    -0.218 OA
ATOM     22  O   UNL     1      -7.360  -3.793  -1.490  1.00  0.00    -0.218 OA
ATOM     23  C   UNL     1      -9.246   0.974  -2.110  1.00  0.00    +0.001 A 
ATOM     24  C   UNL     1      -9.682  -1.401  -1.833  1.00  0.00    +0.021 A 
ATOM     25  C   UNL     1     -10.060  -0.154  -2.322  1.00  0.00    +0.001 A 
ENDBRANCH  10  11
ENDBRANCH   5  10
BRANCH   6  26
ATOM     26  O   UNL     1      -1.368  -1.007   3.003  1.00  0.00    -0.386 OA
ATOM     27  H   UNL     1      -0.655  -0.980   3.674  1.00  0.00    +0.211 HD
ENDBRANCH   6  26
BRANCH   7  28
ATOM     28  O   UNL     1       1.242   0.011   2.758  1.00  0.00    -0.387 OA
ATOM     29  H   UNL     1       2.163   0.055   2.429  1.00  0.00    +0.211 HD
ENDBRANCH   7  28
ENDBRANCH   1   2
BRANCH   1  30
ATOM     30  O   UNL     1       3.118   0.611   0.864  1.00  0.00    -0.491 OA
BRANCH  30  31
ATOM     31  C   UNL     1       4.405   0.370   0.469  1.00  0.00    +0.119 A 
ATOM     32  C   UNL     1       4.820   0.034  -0.818  1.00  0.00    +0.047 A 
ATOM     33  C   UNL     1       5.357   0.478   1.483  1.00  0.00    +0.047 A 
ATOM     34  C   UNL     1       6.177  -0.192  -1.082  1.00  0.00    +0.012 A 
ATOM     35  C   UNL     1       6.711   0.254   1.217  1.00  0.00    +0.012 A 
ATOM     36  C   UNL     1       7.146  -0.086  -0.072  1.00  0.00    -0.018 A 
BRANCH  36  37
ATOM     37  C   UNL     1       8.571  -0.323  -0.357  1.00  0.00    -0.018 A 
ATOM     38  C   UNL     1       9.545   0.633  -0.024  1.00  0.00    +0.009 A 
ATOM     39  C   UNL     1       8.999  -1.513  -0.969  1.00  0.00    +0.009 A 
ATOM     40  C   UNL     1      10.897   0.410  -0.294  1.00  0.00    +0.001 A 
ATOM     41  C   UNL     1      10.351  -1.739  -1.239  1.00  0.00    +0.001 A 
ATOM     42  C   UNL     1      11.300  -0.777  -0.902  1.00  0.00    +0.000 A 
ENDBRANCH  36  37
ENDBRANCH  30  31
ENDBRANCH   1  30
TORSDOF 9
