REMARK SMILES O=C(NCC1(F)CC[NH2+]CC1)c1c(F)cccc1-c1cccc(Cl)c1
REMARK SMILES IDX 1 1 2 2 3 3 12 5 13 6 18 7 15 8 17 9 16 10 14 11 19 12 20 13
REMARK SMILES IDX 25 14 21 15 23 16 22 17 24 18 4 19 5 20 7 21 11 22 8 23
REMARK SMILES IDX 10 24 9 25 6 26
REMARK H PARENT 3 4 9 27 9 28
ROOT
ATOM      1  O   UNL     1      -0.168  -0.893  -1.432  1.00  0.00    -0.269 OA
ATOM      2  C   UNL     1      -0.400  -1.558  -0.428  1.00  0.00    +0.255 C 
ATOM      3  N   UNL     1       0.601  -1.925   0.450  1.00  0.00    -0.349 N 
ATOM      4  H   UNL     1       0.370  -2.497   1.257  1.00  0.00    +0.163 HD
ENDROOT
BRANCH   2   5
ATOM      5  C   UNL     1      -1.781  -1.984  -0.080  1.00  0.00    +0.083 A 
ATOM      6  C   UNL     1      -1.987  -3.293   0.373  1.00  0.00    +0.136 A 
ATOM      7  C   UNL     1      -2.884  -1.117  -0.242  1.00  0.00    -0.003 A 
ATOM      8  C   UNL     1      -3.263  -3.765   0.662  1.00  0.00    +0.040 A 
ATOM      9  C   UNL     1      -4.170  -1.616   0.052  1.00  0.00    +0.010 A 
ATOM     10  C   UNL     1      -4.359  -2.927   0.497  1.00  0.00    +0.004 A 
ATOM     11  F   UNL     1      -0.952  -4.130   0.543  1.00  0.00    -0.206 F 
BRANCH   7  12
ATOM     12  C   UNL     1      -2.754   0.289  -0.653  1.00  0.00    -0.016 A 
ATOM     13  C   UNL     1      -3.193   0.715  -1.918  1.00  0.00    +0.009 A 
ATOM     14  C   UNL     1      -2.194   1.240   0.214  1.00  0.00    +0.029 A 
ATOM     15  C   UNL     1      -3.064   2.050  -2.310  1.00  0.00    +0.002 A 
ATOM     16  C   UNL     1      -2.050   2.567  -0.189  1.00  0.00    +0.041 A 
ATOM     17  C   UNL     1      -2.487   2.978  -1.445  1.00  0.00    +0.020 A 
ATOM     18 Cl   UNL     1      -1.293   3.696   0.868  1.00  0.00    -0.084 Cl
ENDBRANCH   7  12
ENDBRANCH   2   5
BRANCH   3  19
ATOM     19  C   UNL     1       2.001  -1.669   0.162  1.00  0.00    +0.157 C 
BRANCH  19  20
ATOM     20  C   UNL     1       2.521  -0.305   0.661  1.00  0.00    +0.138 C 
ATOM     21  C   UNL     1       4.004  -0.151   0.305  1.00  0.00    +0.104 C 
ATOM     22  C   UNL     1       1.715   0.892   0.155  1.00  0.00    +0.104 C 
ATOM     23  C   UNL     1       4.552   1.170   0.815  1.00  0.00    +0.263 C 
ATOM     24  C   UNL     1       2.289   2.201   0.659  1.00  0.00    +0.263 C 
ATOM     25  N   UNL     1       3.729   2.292   0.281  1.00  0.00    -0.346 N 
ATOM     26  F   UNL     1       2.443  -0.294   2.029  1.00  0.00    -0.241 F 
ATOM     27  H   UNL     1       4.105   3.182   0.637  1.00  0.00    +0.346 HD
ATOM     28  H   UNL     1       3.817   2.348  -0.745  1.00  0.00    +0.346 HD
ENDBRANCH  19  20
ENDBRANCH   3  19
TORSDOF 4
