REMARK SMILES C/C=C(\C)C(=O)O[C@H]1C(C)(C)[C@H](CC(=O)OC)[C@]2(C)C(=O)[C@@]1(O)C=C1C3=CC(=O)O[C@@H](c4ccoc4)[C@]3(C)CC[C@@H]12
REMARK SMILES IDX 8 1 9 2 10 3 11 4 12 5 18 6 19 7 20 8 21 9 22 10 24 11 25 12
REMARK SMILES IDX 26 13 27 14 28 15 29 16 30 17 31 18 37 19 38 20 39 21 40 22
REMARK SMILES IDX 41 23 7 24 5 25 6 26 3 27 2 28 1 29 4 30 23 31 13 33 14 34
REMARK SMILES IDX 15 35 16 36 17 37 32 38 33 39 36 40 34 41 35 42
REMARK H PARENT 23 32
ROOT
ATOM      1  C   UNL     1      -2.121   0.168  -1.024  1.00  0.00    +0.226 C 
ATOM      2  C   UNL     1      -1.484   1.283  -0.122  1.00  0.00    +0.010 C 
ATOM      3  C   UNL     1      -2.673   2.107   0.466  1.00  0.00    +0.015 C 
ATOM      4  C   UNL     1      -0.803   0.734   1.155  1.00  0.00    +0.015 C 
ATOM      5  C   UNL     1      -0.467   2.184  -0.974  1.00  0.00    +0.024 C 
ATOM      6  C   UNL     1       0.524   1.366  -1.940  1.00  0.00    +0.041 C 
ATOM      7  C   UNL     1       1.327   2.323  -2.865  1.00  0.00    +0.021 C 
ATOM      8  C   UNL     1      -0.402   0.479  -2.760  1.00  0.00    +0.178 C 
ATOM      9  O   UNL     1      -0.632   0.658  -3.956  1.00  0.00    -0.295 OA
ATOM     10  C   UNL     1      -1.126  -0.590  -1.934  1.00  0.00    +0.179 C 
ATOM     11  C   UNL     1      -0.111  -1.414  -1.200  1.00  0.00    +0.024 C 
ATOM     12  C   UNL     1       1.149  -1.018  -0.940  1.00  0.00    -0.040 C 
ATOM     13  C   UNL     1       2.155  -1.903  -0.329  1.00  0.00    -0.027 C 
ATOM     14  C   UNL     1       2.063  -3.246  -0.364  1.00  0.00    +0.098 C 
ATOM     15  C   UNL     1       3.068  -4.131   0.249  1.00  0.00    +0.331 C 
ATOM     16  O   UNL     1       3.083  -5.327  -0.007  1.00  0.00    -0.247 OA
ATOM     17  O   UNL     1       3.959  -3.556   1.087  1.00  0.00    -0.453 OA
ATOM     18  C   UNL     1       3.708  -2.215   1.562  1.00  0.00    +0.220 C 
ATOM     19  C   UNL     1       3.365  -1.270   0.365  1.00  0.00    +0.035 C 
ATOM     20  C   UNL     1       4.548  -1.181  -0.631  1.00  0.00    +0.021 C 
ATOM     21  C   UNL     1       2.995   0.135   0.879  1.00  0.00    +0.016 C 
ATOM     22  C   UNL     1       2.449   1.075  -0.199  1.00  0.00    +0.010 C 
ATOM     23  C   UNL     1       1.602   0.393  -1.297  1.00  0.00    +0.033 C 
ENDROOT
BRANCH   1  24
ATOM     24  O   UNL     1      -2.845  -0.770  -0.192  1.00  0.00    -0.455 OA
BRANCH  24  25
ATOM     25  C   UNL     1      -4.012  -1.248  -0.697  1.00  0.00    +0.333 C 
ATOM     26  O   UNL     1      -4.526  -0.887  -1.745  1.00  0.00    -0.247 OA
BRANCH  25  27
ATOM     27  C   UNL     1      -4.593  -2.266   0.234  1.00  0.00    +0.030 C 
ATOM     28  C   UNL     1      -5.846  -2.684  -0.039  1.00  0.00    -0.020 C 
ATOM     29  C   UNL     1      -6.669  -3.677   0.717  1.00  0.00    +0.036 C 
ATOM     30  C   UNL     1      -3.731  -2.746   1.363  1.00  0.00    +0.052 C 
ENDBRANCH  25  27
ENDBRANCH  24  25
ENDBRANCH   1  24
BRANCH  10  31
ATOM     31  O   UNL     1      -1.803  -1.504  -2.792  1.00  0.00    -0.374 OA
ATOM     32  H   UNL     1      -2.318  -0.974  -3.431  1.00  0.00    +0.212 HD
ENDBRANCH  10  31
BRANCH   5  33
ATOM     33  C   UNL     1      -1.243   3.292  -1.774  1.00  0.00    +0.128 C 
BRANCH  33  34
ATOM     34  C   UNL     1      -1.522   4.540  -0.957  1.00  0.00    +0.305 C 
ATOM     35  O   UNL     1      -0.812   4.954  -0.051  1.00  0.00    -0.252 OA
BRANCH  34  36
ATOM     36  O   UNL     1      -2.656   5.143  -1.406  1.00  0.00    -0.469 OA
ATOM     37  C   UNL     1      -2.995   6.342  -0.708  1.00  0.00    +0.282 C 
ENDBRANCH  34  36
ENDBRANCH  33  34
ENDBRANCH   5  33
BRANCH  18  38
ATOM     38  C   UNL     1       4.861  -1.763   2.416  1.00  0.00    +0.032 A 
ATOM     39  C   UNL     1       4.802  -0.983   3.609  1.00  0.00    +0.049 A 
ATOM     40  C   UNL     1       6.203  -2.042   2.237  1.00  0.00    +0.202 A 
ATOM     41  C   UNL     1       6.097  -0.827   4.043  1.00  0.00    +0.195 A 
ATOM     42  O   UNL     1       6.953  -1.466   3.209  1.00  0.00    -0.472 OA
ENDBRANCH  18  38
TORSDOF 8
