REMARK SMILES C[C@@H]1CC[C@]2(C(=O)[O-])CC[C@]3(C)C(=CC[C@@H]4[C@@]5(C)C[C@@H](O)[C@H](O)[C@@](C)(COS(=O)(=O)[O-])[C@@H]5CC[C@]43C)[C@@H]2[C@]1(C)O
REMARK SMILES IDX 26 1 24 2 2 3 3 4 38 5 4 6 37 7 5 8 13 9 9 10 11 11 14 12
REMARK SMILES IDX 10 13 35 14 15 15 34 16 16 17 33 18 17 19 32 20 19 21 20 22
REMARK SMILES IDX 22 23 1 24 39 25 12 26 36 27 18 28 25 29 40 30 6 32 7 33
REMARK SMILES IDX 8 34 21 35 23 37 27 39 28 40 29 41 30 42 31 43
REMARK H PARENT 40 31 21 36 23 38
ROOT
ATOM      1  C   UNL     1      -5.447   1.107  -0.850  1.00  0.00    +0.191 C 
ENDROOT
BRANCH   1   2
ATOM      2  C   UNL     1      -4.738  -0.166  -0.282  1.00  0.00    +0.024 C 
ATOM      3  C   UNL     1       5.812   0.404   1.334  1.00  0.00    +0.018 C 
ATOM      4  C   UNL     1       6.506   0.080  -0.006  1.00  0.00    +0.007 C 
ATOM      5  C   UNL     1       4.280   0.698   1.181  1.00  0.00    +0.072 C 
ATOM      6  C   UNL     1       5.745   0.592  -1.225  1.00  0.00    +0.014 C 
ATOM      7  C   UNL     1       3.684  -0.261   0.074  1.00  0.00    +0.059 C 
ATOM      8  C   UNL     1       4.301   0.021  -1.329  1.00  0.00    +0.019 C 
ATOM      9  C   UNL     1       2.139  -0.442   0.059  1.00  0.00    -0.061 C 
ATOM     10  C   UNL     1       3.447   1.023  -2.131  1.00  0.00    +0.015 C 
ATOM     11  C   UNL     1       1.255   0.379  -0.901  1.00  0.00    -0.006 C 
ATOM     12  C   UNL     1       1.604  -1.389   0.858  1.00  0.00    -0.026 C 
ATOM     13  C   UNL     1       1.994   0.571  -2.256  1.00  0.00    +0.013 C 
ATOM     14  C   UNL     1      -0.199  -0.356  -1.146  1.00  0.00    -0.020 C 
ATOM     15  C   UNL     1       0.155  -1.732   0.990  1.00  0.00    +0.032 C 
ATOM     16  C   UNL     1      -1.196   0.592  -1.871  1.00  0.00    +0.008 C 
ATOM     17  C   UNL     1      -0.799  -0.771   0.253  1.00  0.00    +0.006 C 
ATOM     18  C   UNL     1      -2.655   0.123  -1.876  1.00  0.00    +0.005 C 
ATOM     19  C   UNL     1      -2.334  -1.216   0.286  1.00  0.00    -0.023 C 
ATOM     20  C   UNL     1      -3.167  -0.081  -0.435  1.00  0.00    +0.006 C 
ATOM     21  C   UNL     1      -2.799  -1.292   1.773  1.00  0.00    +0.042 C 
ATOM     22  C   UNL     1      -4.314  -1.400   1.948  1.00  0.00    +0.144 C 
ATOM     23  C   UNL     1      -5.045  -0.251   1.243  1.00  0.00    +0.151 C 
ATOM     24  C   UNL     1       6.584   1.525   2.048  1.00  0.00    +0.011 C 
ATOM     25  C   UNL     1       3.585   0.521   2.545  1.00  0.00    +0.043 C 
ATOM     26  C   UNL     1       1.058   1.784  -0.266  1.00  0.00    +0.017 C 
ATOM     27  C   UNL     1      -0.005  -1.603  -2.060  1.00  0.00    +0.012 C 
ATOM     28  C   UNL     1      -2.554  -2.622  -0.332  1.00  0.00    +0.012 C 
ATOM     29  C   UNL     1      -5.368  -1.346  -1.056  1.00  0.00    +0.017 C 
BRANCH   5  30
ATOM     30  O   UNL     1       4.132   2.074   0.801  1.00  0.00    -0.389 OA
ATOM     31  H   UNL     1       4.148   2.617   1.603  1.00  0.00    +0.211 HD
ENDBRANCH   5  30
BRANCH   8  32
ATOM     32  C   UNL     1       4.545  -1.304  -2.136  1.00  0.00    +0.048 C 
ATOM     33  O   UNL     1       4.838  -2.331  -1.457  1.00  0.00    -0.550 OA
ATOM     34  O   UNL     1       4.486  -1.207  -3.398  1.00  0.00    -0.550 OA
ENDBRANCH   8  32
BRANCH  22  35
ATOM     35  O   UNL     1      -4.620  -1.360   3.351  1.00  0.00    -0.390 OA
ATOM     36  H   UNL     1      -5.560  -1.084   3.377  1.00  0.00    +0.211 HD
ENDBRANCH  22  35
BRANCH  23  37
ATOM     37  O   UNL     1      -6.448  -0.408   1.503  1.00  0.00    -0.390 OA
ATOM     38  H   UNL     1      -6.816   0.517   1.502  1.00  0.00    +0.211 HD
ENDBRANCH  23  37
ENDBRANCH   1   2
BRANCH   1  39
ATOM     39  O   UNL     1      -5.077   2.279  -0.143  1.00  0.00    -0.279 OA
BRANCH  39  40
ATOM     40  S   UNL     1      -6.280   3.172   0.508  1.00  0.00    +0.217 S 
ATOM     41  O   UNL     1      -5.579   4.221   1.236  1.00  0.00    -0.213 OA
ATOM     42  O   UNL     1      -6.984   2.208   1.358  1.00  0.00    -0.213 OA
ATOM     43  O   UNL     1      -7.043   3.624  -0.649  1.00  0.00    -0.726 OA
ENDBRANCH  39  40
ENDBRANCH   1  39
TORSDOF 7
