REMARK SMILES CC1(C)CC[C@]2(C(=O)[O-])CC[C@]3(C)C(=CC[C@@H]4[C@@]5(C)C[C@@H](O)[C@H](O)[C@](C)(CO)[C@@H]5CC[C@]43C)[C@@H]2[C@@H]1O
REMARK SMILES IDX 1 1 2 2 3 3 4 4 5 5 6 6 10 7 11 8 12 9 13 10 14 11 15 12
REMARK SMILES IDX 16 13 17 14 18 15 19 16 20 17 21 18 23 19 25 20 26 21 29 22
REMARK SMILES IDX 30 23 31 24 32 25 33 26 34 27 35 28 36 29 7 31 8 32 9 33
REMARK SMILES IDX 27 34 28 35 22 37 24 39
REMARK H PARENT 36 30 28 36 22 38 24 40
ROOT
ATOM      1  C   UNL     1       6.188  -1.508   0.771  1.00  0.00    +0.014 C 
ATOM      2  C   UNL     1       5.751  -0.050   0.519  1.00  0.00    -0.009 C 
ATOM      3  C   UNL     1       6.609   0.849   1.437  1.00  0.00    +0.014 C 
ATOM      4  C   UNL     1       6.011   0.362  -0.942  1.00  0.00    +0.010 C 
ATOM      5  C   UNL     1       5.180  -0.440  -1.936  1.00  0.00    +0.014 C 
ATOM      6  C   UNL     1       3.652  -0.409  -1.669  1.00  0.00    +0.019 C 
ATOM      7  C   UNL     1       3.040   0.894  -2.201  1.00  0.00    +0.015 C 
ATOM      8  C   UNL     1       1.513   0.855  -2.134  1.00  0.00    +0.013 C 
ATOM      9  C   UNL     1       0.934   0.581  -0.717  1.00  0.00    -0.006 C 
ATOM     10  C   UNL     1       0.930   1.969   0.003  1.00  0.00    +0.017 C 
ATOM     11  C   UNL     1       1.802  -0.356   0.150  1.00  0.00    -0.061 C 
ATOM     12  C   UNL     1       1.248  -1.043   1.172  1.00  0.00    -0.026 C 
ATOM     13  C   UNL     1      -0.205  -1.048   1.545  1.00  0.00    +0.032 C 
ATOM     14  C   UNL     1      -1.129  -0.182   0.652  1.00  0.00    +0.006 C 
ATOM     15  C   UNL     1      -2.679  -0.505   0.796  1.00  0.00    -0.023 C 
ATOM     16  C   UNL     1      -3.019  -1.958   0.377  1.00  0.00    +0.012 C 
ATOM     17  C   UNL     1      -3.077  -0.338   2.292  1.00  0.00    +0.042 C 
ATOM     18  C   UNL     1      -4.584  -0.316   2.533  1.00  0.00    +0.144 C 
ATOM     19  C   UNL     1      -5.277   0.771   1.703  1.00  0.00    +0.151 C 
ATOM     20  C   UNL     1      -5.010   0.660   0.175  1.00  0.00    +0.022 C 
ATOM     21  C   UNL     1      -5.556   1.966  -0.473  1.00  0.00    +0.017 C 
ATOM     22  C   UNL     1      -3.451   0.581  -0.045  1.00  0.00    +0.006 C 
ATOM     23  C   UNL     1      -3.007   0.551  -1.522  1.00  0.00    +0.005 C 
ATOM     24  C   UNL     1      -1.511   0.854  -1.663  1.00  0.00    +0.008 C 
ATOM     25  C   UNL     1      -0.569  -0.049  -0.815  1.00  0.00    -0.020 C 
ATOM     26  C   UNL     1      -0.517  -1.442  -1.521  1.00  0.00    +0.012 C 
ATOM     27  C   UNL     1       3.294  -0.603  -0.173  1.00  0.00    +0.056 C 
ATOM     28  C   UNL     1       4.243   0.129   0.832  1.00  0.00    +0.128 C 
ENDROOT
BRANCH  28  29
ATOM     29  O   UNL     1       3.959   1.530   0.912  1.00  0.00    -0.392 OA
ATOM     30  H   UNL     1       3.065   1.584   1.287  1.00  0.00    +0.211 HD
ENDBRANCH  28  29
BRANCH   6  31
ATOM     31  C   UNL     1       3.216  -1.632  -2.551  1.00  0.00    +0.048 C 
ATOM     32  O   UNL     1       3.087  -2.738  -1.951  1.00  0.00    -0.550 OA
ATOM     33  O   UNL     1       3.077  -1.396  -3.787  1.00  0.00    -0.550 OA
ENDBRANCH   6  31
BRANCH  20  34
ATOM     34  C   UNL     1      -5.789  -0.524  -0.454  1.00  0.00    +0.165 C 
BRANCH  34  35
ATOM     35  O   UNL     1      -7.203  -0.347  -0.377  1.00  0.00    -0.396 OA
ATOM     36  H   UNL     1      -7.382   0.015   0.519  1.00  0.00    +0.210 HD
ENDBRANCH  34  35
ENDBRANCH  20  34
BRANCH  18  37
ATOM     37  O   UNL     1      -4.846  -0.035   3.918  1.00  0.00    -0.390 OA
ATOM     38  H   UNL     1      -4.367  -0.705   4.439  1.00  0.00    +0.211 HD
ENDBRANCH  18  37
BRANCH  19  39
ATOM     39  O   UNL     1      -6.684   0.717   1.994  1.00  0.00    -0.390 OA
ATOM     40  H   UNL     1      -6.725   0.700   2.974  1.00  0.00    +0.211 HD
ENDBRANCH  19  39
TORSDOF 6
