REMARK SMILES C[NH+]1CCN(c2ccc(-c3cnn4c(N)c(-c5ccc(NC(=O)NCC6CCCCC6)cc5)cnc34)cc2)CC1
REMARK SMILES IDX 10 1 11 2 12 3 13 4 14 5 16 6 34 7 35 8 36 9 9 10 6 11 7 12
REMARK SMILES IDX 38 13 8 14 37 15 5 16 2 17 3 18 40 19 4 20 39 21 1 22 15 24
REMARK SMILES IDX 17 27 18 28 33 29 19 30 32 31 20 32 21 33 22 34 23 35 24 36
REMARK SMILES IDX 25 39 26 40 27 41 31 42 28 43 30 44 29 45
REMARK H PARENT 2 23 15 25 15 26 21 37 24 38
ROOT
ATOM      1  C   UNL     1      -3.917  -0.573   2.110  1.00  0.00    +0.047 A 
ATOM      2  C   UNL     1      -3.629  -0.863   3.460  1.00  0.00    +0.146 A 
ATOM      3  N   UNL     1      -2.326  -0.928   3.723  1.00  0.00    -0.172 NA
ATOM      4  N   UNL     1      -1.727  -0.675   2.521  1.00  0.00    -0.198 N 
ATOM      5  C   UNL     1      -0.330  -0.629   2.264  1.00  0.00    +0.136 C 
ATOM      6  C   UNL     1       0.077  -0.370   1.001  1.00  0.00    +0.042 C 
ATOM      7  C   UNL     1      -1.015  -0.167  -0.001  1.00  0.00    +0.126 C 
ATOM      8  N   UNL     1      -2.295  -0.205   0.217  1.00  0.00    -0.236 NA
ATOM      9  C   UNL     1      -2.674  -0.459   1.508  1.00  0.00    +0.165 A 
ENDROOT
BRANCH   1  10
ATOM     10  C   UNL     1      -5.204  -0.432   1.448  1.00  0.00    -0.013 A 
ATOM     11  C   UNL     1      -7.759  -0.147   0.201  1.00  0.00    +0.037 A 
ATOM     12  C   UNL     1      -7.548  -1.062   1.241  1.00  0.00    +0.026 A 
ATOM     13  C   UNL     1      -6.652   0.613  -0.205  1.00  0.00    +0.026 A 
ATOM     14  C   UNL     1      -6.296  -1.201   1.860  1.00  0.00    +0.011 A 
ATOM     15  C   UNL     1      -5.397   0.478   0.407  1.00  0.00    +0.011 A 
BRANCH  11  16
ATOM     16  N   UNL     1      -8.994   0.006  -0.429  1.00  0.00    -0.360 N 
ATOM     17  N   UNL     1     -11.631   0.400  -1.594  1.00  0.00    -0.334 N 
ATOM     18  C   UNL     1     -10.565   1.488  -1.666  1.00  0.00    +0.283 C 
ATOM     19  C   UNL     1     -10.979  -0.978  -1.554  1.00  0.00    +0.283 C 
ATOM     20  C   UNL     1      -9.538   1.373  -0.521  1.00  0.00    +0.178 C 
ATOM     21  C   UNL     1      -9.959  -1.103  -0.405  1.00  0.00    +0.178 C 
ATOM     22  C   UNL     1     -12.638   0.620  -0.505  1.00  0.00    +0.332 C 
ATOM     23  H   UNL     1     -12.147   0.447  -2.481  1.00  0.00    +0.347 HD
ENDBRANCH  11  16
ENDBRANCH   1  10
BRANCH   5  24
ATOM     24  N   UNL     1       0.507  -0.860   3.337  1.00  0.00    -0.383 N 
ATOM     25  H   UNL     1       1.514  -0.856   3.235  1.00  0.00    +0.158 HD
ATOM     26  H   UNL     1       0.074  -1.047   4.240  1.00  0.00    +0.158 HD
ENDBRANCH   5  24
BRANCH   6  27
ATOM     27  C   UNL     1       1.481  -0.291   0.587  1.00  0.00    -0.013 A 
ATOM     28  C   UNL     1       2.053  -1.315  -0.174  1.00  0.00    +0.011 A 
ATOM     29  C   UNL     1       2.267   0.807   0.949  1.00  0.00    +0.011 A 
ATOM     30  C   UNL     1       3.395  -1.237  -0.565  1.00  0.00    +0.027 A 
ATOM     31  C   UNL     1       3.609   0.882   0.555  1.00  0.00    +0.027 A 
ATOM     32  C   UNL     1       4.185  -0.139  -0.202  1.00  0.00    +0.042 A 
BRANCH  32  33
ATOM     33  N   UNL     1       5.526  -0.138  -0.635  1.00  0.00    -0.308 N 
ATOM     34  C   UNL     1       6.496   0.805  -0.371  1.00  0.00    +0.319 C 
ATOM     35  O   UNL     1       6.376   1.800   0.330  1.00  0.00    -0.249 OA
ATOM     36  N   UNL     1       7.680   0.489  -1.004  1.00  0.00    -0.338 N 
ATOM     37  H   UNL     1       5.828  -0.938  -1.167  1.00  0.00    +0.171 HD
ATOM     38  H   UNL     1       7.680  -0.215  -1.724  1.00  0.00    +0.165 HD
BRANCH  36  39
ATOM     39  C   UNL     1       8.859   1.322  -0.860  1.00  0.00    +0.121 C 
BRANCH  39  40
ATOM     40  C   UNL     1      10.154   0.540  -1.122  1.00  0.00    +0.008 C 
ATOM     41  C   UNL     1      10.383  -0.542  -0.053  1.00  0.00    +0.005 C 
ATOM     42  C   UNL     1      11.350   1.503  -1.177  1.00  0.00    +0.005 C 
ATOM     43  C   UNL     1      11.703  -1.279  -0.266  1.00  0.00    +0.000 C 
ATOM     44  C   UNL     1      12.667   0.762  -1.390  1.00  0.00    +0.000 C 
ATOM     45  C   UNL     1      12.883  -0.315  -0.332  1.00  0.00    +0.000 C 
ENDBRANCH  39  40
ENDBRANCH  36  39
ENDBRANCH  32  33
ENDBRANCH   6  27
TORSDOF 7
