REMARK SMILES O=C(Nc1cccc(C(F)(F)F)c1)Nc1cc(N2CCC([NH+]3CCCC3)CC2)cc(C(F)(F)F)c1
REMARK SMILES IDX 15 1 16 2 17 3 29 4 30 5 35 6 14 7 1 8 2 9 3 10 4 13 5 14
REMARK SMILES IDX 13 15 6 16 8 17 7 18 9 19 10 20 11 21 12 22 18 23 19 24
REMARK SMILES IDX 28 25 20 26 27 27 21 28 22 29 23 30 26 31 24 32 25 33 31 35
REMARK SMILES IDX 32 36 33 37 34 38
REMARK H PARENT 3 11 14 12 22 34
ROOT
ATOM      1  C   UNL     1       0.866   0.157   1.895  1.00  0.00    +0.045 A 
ATOM      2  C   UNL     1       0.123  -0.663   1.035  1.00  0.00    +0.052 A 
ATOM      3  C   UNL     1      -1.206  -1.040   1.299  1.00  0.00    +0.039 A 
ATOM      4  C   UNL     1      -1.767  -0.551   2.487  1.00  0.00    +0.039 A 
ATOM      5  C   UNL     1      -1.042   0.256   3.385  1.00  0.00    +0.060 A 
ATOM      6  C   UNL     1       0.282   0.595   3.082  1.00  0.00    +0.039 A 
ENDROOT
BRANCH   1   7
ATOM      7  N   UNL     1       2.194   0.557   1.634  1.00  0.00    -0.308 N 
ATOM      8  O   UNL     1       2.364   0.103  -0.628  1.00  0.00    -0.248 OA
ATOM      9  C   UNL     1       2.882   0.438   0.431  1.00  0.00    +0.323 C 
ATOM     10  N   UNL     1       4.217   0.765   0.604  1.00  0.00    -0.308 N 
ATOM     11  H   UNL     1       4.531   0.880   1.556  1.00  0.00    +0.171 HD
ATOM     12  H   UNL     1       2.659   1.080   2.362  1.00  0.00    +0.171 HD
BRANCH  10  13
ATOM     13  C   UNL     1       5.217   0.869  -0.387  1.00  0.00    +0.043 A 
ATOM     14  C   UNL     1       4.979   0.740  -1.756  1.00  0.00    +0.026 A 
ATOM     15  C   UNL     1       6.523   1.131   0.049  1.00  0.00    +0.039 A 
ATOM     16  C   UNL     1       6.026   0.866  -2.674  1.00  0.00    +0.003 A 
ATOM     17  C   UNL     1       7.587   1.251  -0.864  1.00  0.00    +0.058 A 
ATOM     18  C   UNL     1       7.322   1.122  -2.232  1.00  0.00    +0.013 A 
BRANCH  17  19
ATOM     19  C   UNL     1       8.981   1.553  -0.373  1.00  0.00    +0.416 C 
ATOM     20  F   UNL     1       9.195   2.888  -0.223  1.00  0.00    -0.166 F 
ATOM     21  F   UNL     1       9.956   1.103  -1.209  1.00  0.00    -0.166 F 
ATOM     22  F   UNL     1       9.243   0.994   0.842  1.00  0.00    -0.166 F 
ENDBRANCH  17  19
ENDBRANCH  10  13
ENDBRANCH   1   7
BRANCH   3  23
ATOM     23  N   UNL     1      -1.948  -1.812   0.409  1.00  0.00    -0.371 N 
ATOM     24  C   UNL     1      -2.917  -2.799   0.901  1.00  0.00    +0.122 C 
ATOM     25  C   UNL     1      -1.445  -2.080  -0.952  1.00  0.00    +0.122 C 
ATOM     26  C   UNL     1      -4.199  -2.685   0.070  1.00  0.00    +0.086 C 
ATOM     27  C   UNL     1      -2.617  -2.475  -1.859  1.00  0.00    +0.086 C 
ATOM     28  C   UNL     1      -3.961  -1.997  -1.289  1.00  0.00    +0.187 C 
BRANCH  28  29
ATOM     29  N   UNL     1      -3.956  -0.481  -1.107  1.00  0.00    -0.332 N 
ATOM     30  C   UNL     1      -3.581   0.339  -2.319  1.00  0.00    +0.262 C 
ATOM     31  C   UNL     1      -5.230   0.129  -0.551  1.00  0.00    +0.262 C 
ATOM     32  C   UNL     1      -4.141   1.706  -1.995  1.00  0.00    +0.067 C 
ATOM     33  C   UNL     1      -5.485   1.374  -1.384  1.00  0.00    +0.067 C 
ATOM     34  H   UNL     1      -3.212  -0.321  -0.397  1.00  0.00    +0.348 HD
ENDBRANCH  28  29
ENDBRANCH   3  23
BRANCH   5  35
ATOM     35  C   UNL     1      -1.701   0.738   4.653  1.00  0.00    +0.416 C 
ATOM     36  F   UNL     1      -1.904  -0.269   5.544  1.00  0.00    -0.166 F 
ATOM     37  F   UNL     1      -2.928   1.280   4.414  1.00  0.00    -0.166 F 
ATOM     38  F   UNL     1      -0.989   1.693   5.308  1.00  0.00    -0.166 F 
ENDBRANCH   5  35
TORSDOF 6
