REMARK SMILES CCN1c2ncc(COc3cccc(C(N)=O)c3)cc2C(=O)N(C)c2ccc(Cl)nc21
REMARK SMILES IDX 8 1 7 2 3 3 4 4 31 5 5 6 20 7 30 8 25 9 6 10 19 11 21 12
REMARK SMILES IDX 28 13 23 14 26 15 22 16 27 17 29 18 24 19 2 20 1 21 9 22
REMARK SMILES IDX 10 23 11 24 18 25 12 26 14 27 13 28 15 29 16 30 17 31
REMARK H PARENT 16 32 16 33
ROOT
ATOM      1  C   UNL     1       2.065   0.852  -0.149  1.00  0.00    +0.267 C 
ENDROOT
BRANCH   1   2
ATOM      2  C   UNL     1       0.658   0.322  -0.106  1.00  0.00    +0.009 A 
ATOM      3  N   UNL     1      -3.281  -1.100   0.194  1.00  0.00    -0.309 N 
ATOM      4  C   UNL     1      -1.972  -0.621   0.052  1.00  0.00    +0.147 A 
ATOM      5  C   UNL     1      -4.371  -0.216   0.295  1.00  0.00    +0.160 A 
ATOM      6  N   UNL     1      -1.045  -1.006   0.974  1.00  0.00    -0.238 NA
ATOM      7  C   UNL     1      -1.620   0.244  -0.972  1.00  0.00    +0.083 A 
ATOM      8  N   UNL     1      -5.191  -0.365   1.373  1.00  0.00    -0.217 NA
ATOM      9  C   UNL     1      -4.619   0.772  -0.683  1.00  0.00    +0.087 A 
ATOM     10  C   UNL     1       0.221  -0.535   0.886  1.00  0.00    +0.120 A 
ATOM     11  C   UNL     1      -0.294   0.714  -1.047  1.00  0.00    +0.026 A 
ATOM     12  C   UNL     1      -2.518   0.597  -2.085  1.00  0.00    +0.261 C 
ATOM     13  C   UNL     1      -6.236   0.465   1.518  1.00  0.00    +0.131 A 
ATOM     14  N   UNL     1      -3.869   0.905  -1.898  1.00  0.00    -0.308 N 
ATOM     15  C   UNL     1      -5.735   1.611  -0.480  1.00  0.00    +0.033 A 
ATOM     16  O   UNL     1      -1.975   0.713  -3.189  1.00  0.00    -0.269 OA
ATOM     17  C   UNL     1      -6.552   1.466   0.634  1.00  0.00    +0.043 A 
ATOM     18 Cl   UNL     1      -7.185   0.187   2.917  1.00  0.00    -0.062 Cl
ATOM     19  C   UNL     1      -4.568   1.435  -3.071  1.00  0.00    +0.154 C 
BRANCH   3  20
ATOM     20  C   UNL     1      -3.424  -2.354   0.957  1.00  0.00    +0.122 C 
ATOM     21  C   UNL     1      -2.768  -3.530   0.235  1.00  0.00    +0.028 C 
ENDBRANCH   3  20
ENDBRANCH   1   2
BRANCH   1  22
ATOM     22  O   UNL     1       2.973  -0.147   0.314  1.00  0.00    -0.489 OA
BRANCH  22  23
ATOM     23  C   UNL     1       4.297   0.189   0.378  1.00  0.00    +0.120 A 
ATOM     24  C   UNL     1       4.856   1.405  -0.018  1.00  0.00    +0.046 A 
ATOM     25  C   UNL     1       5.126  -0.812   0.892  1.00  0.00    +0.060 A 
ATOM     26  C   UNL     1       6.232   1.619   0.107  1.00  0.00    +0.005 A 
ATOM     27  C   UNL     1       6.507  -0.609   1.006  1.00  0.00    +0.043 A 
ATOM     28  C   UNL     1       7.058   0.618   0.620  1.00  0.00    +0.014 A 
BRANCH  27  29
ATOM     29  C   UNL     1       7.335  -1.711   1.563  1.00  0.00    +0.248 C 
ATOM     30  N   UNL     1       8.659  -1.743   1.227  1.00  0.00    -0.366 N 
ATOM     31  O   UNL     1       6.851  -2.579   2.279  1.00  0.00    -0.270 OA
ATOM     32  H   UNL     1       9.208  -2.504   1.604  1.00  0.00    +0.159 HD
ATOM     33  H   UNL     1       9.096  -1.116   0.570  1.00  0.00    +0.159 HD
ENDBRANCH  27  29
ENDBRANCH  22  23
ENDBRANCH   1  22
TORSDOF 5
