REMARK SMILES C[C@@H]1C[C@H]2O[C@@]3(C[C@@H]2C(C)(C)O)[C@H](O)[C@@]2(C)[C@@H]4CC[C@H]5C(C)(C)[C@@H](O)CC[C@@]56C[C@@]46C[C@@H](OC(=O)[O-])[C@]2(C)[C@@H]13
REMARK SMILES IDX 1 1 2 2 3 3 4 4 5 5 6 6 7 7 8 8 13 9 15 10 16 11 17 12 18 13
REMARK SMILES IDX 19 14 20 15 21 16 22 17 23 18 24 19 26 20 27 21 28 22 29 23
REMARK SMILES IDX 30 24 31 25 32 26 37 27 38 28 39 29 9 30 10 31 11 32 12 33
REMARK SMILES IDX 33 35 34 36 35 37 36 38 14 39 25 41
REMARK H PARENT 12 34 14 40 25 42
ROOT
ATOM      1  C   UNL     1      -3.442  -3.324   0.485  1.00  0.00    +0.008 C 
ATOM      2  C   UNL     1      -3.456  -1.828   0.794  1.00  0.00    -0.005 C 
ATOM      3  C   UNL     1      -4.895  -1.294   0.623  1.00  0.00    +0.036 C 
ATOM      4  C   UNL     1      -4.960   0.232   0.478  1.00  0.00    +0.125 C 
ATOM      5  O   UNL     1      -3.766   0.776   1.072  1.00  0.00    -0.368 OA
ATOM      6  C   UNL     1      -2.745   0.536   0.080  1.00  0.00    +0.099 C 
ATOM      7  C   UNL     1      -3.436   1.087  -1.174  1.00  0.00    +0.048 C 
ATOM      8  C   UNL     1      -4.894   0.667  -0.998  1.00  0.00    +0.052 C 
ATOM      9  C   UNL     1      -1.427   1.223   0.500  1.00  0.00    +0.153 C 
ATOM     10  C   UNL     1      -0.321   0.317  -0.082  1.00  0.00    +0.007 C 
ATOM     11  C   UNL     1      -0.219   0.538  -1.625  1.00  0.00    +0.015 C 
ATOM     12  C   UNL     1       1.082   0.528   0.552  1.00  0.00    +0.005 C 
ATOM     13  C   UNL     1       1.755   1.851   0.152  1.00  0.00    +0.005 C 
ATOM     14  C   UNL     1       3.129   1.994   0.799  1.00  0.00    +0.005 C 
ATOM     15  C   UNL     1       4.100   0.965   0.205  1.00  0.00    +0.004 C 
ATOM     16  C   UNL     1       5.574   1.058   0.741  1.00  0.00    -0.006 C 
ATOM     17  C   UNL     1       5.668   0.821   2.264  1.00  0.00    +0.014 C 
ATOM     18  C   UNL     1       6.147   2.471   0.471  1.00  0.00    +0.014 C 
ATOM     19  C   UNL     1       6.442   0.019  -0.039  1.00  0.00    +0.120 C 
ATOM     20  C   UNL     1       5.871  -1.397   0.006  1.00  0.00    +0.033 C 
ATOM     21  C   UNL     1       4.437  -1.438  -0.506  1.00  0.00    +0.010 C 
ATOM     22  C   UNL     1       3.558  -0.470   0.271  1.00  0.00    -0.020 C 
ATOM     23  C   UNL     1       2.916  -1.010   1.520  1.00  0.00    +0.016 C 
ATOM     24  C   UNL     1       2.017  -0.691   0.331  1.00  0.00    -0.018 C 
ATOM     25  C   UNL     1       1.456  -1.904  -0.450  1.00  0.00    +0.033 C 
ATOM     26  C   UNL     1      -0.077  -2.144  -0.495  1.00  0.00    +0.100 C 
ATOM     27  C   UNL     1      -0.878  -1.106   0.331  1.00  0.00    +0.002 C 
ATOM     28  C   UNL     1      -0.724  -1.427   1.851  1.00  0.00    +0.014 C 
ATOM     29  C   UNL     1      -2.425  -1.000  -0.030  1.00  0.00    +0.035 C 
ENDROOT
BRANCH   8  30
ATOM     30  C   UNL     1      -5.935   1.746  -1.388  1.00  0.00    +0.065 C 
ATOM     31  C   UNL     1      -5.803   2.129  -2.869  1.00  0.00    +0.042 C 
ATOM     32  C   UNL     1      -5.893   3.014  -0.528  1.00  0.00    +0.042 C 
BRANCH  30  33
ATOM     33  O   UNL     1      -7.244   1.180  -1.215  1.00  0.00    -0.390 OA
ATOM     34  H   UNL     1      -7.319   0.411  -1.807  1.00  0.00    +0.211 HD
ENDBRANCH  30  33
ENDBRANCH   8  30
BRANCH  26  35
ATOM     35  O   UNL     1      -0.377  -3.460  -0.035  1.00  0.00    -0.546 OA
BRANCH  35  36
ATOM     36  C   UNL     1      -0.191  -4.457  -0.930  1.00  0.00    +0.252 C 
ATOM     37  O   UNL     1       0.314  -4.177  -2.058  1.00  0.00    -0.426 OA
ATOM     38  O   UNL     1      -0.559  -5.598  -0.531  1.00  0.00    -0.426 OA
ENDBRANCH  35  36
ENDBRANCH  26  35
BRANCH   9  39
ATOM     39  O   UNL     1      -1.353   2.582   0.088  1.00  0.00    -0.390 OA
ATOM     40  H   UNL     1      -2.092   3.031   0.539  1.00  0.00    +0.211 HD
ENDBRANCH   9  39
BRANCH  19  41
ATOM     41  O   UNL     1       7.779  -0.039   0.463  1.00  0.00    -0.393 OA
ATOM     42  H   UNL     1       8.232   0.772   0.181  1.00  0.00    +0.210 HD
ENDBRANCH  19  41
TORSDOF 6
