REMARK SMILES O=C(/C=C/c1cccc([O-])c1)c1ccc([O-])cc1[O-]
REMARK SMILES IDX 1 1 2 2 3 3 4 4 5 5 6 6 11 7 7 8 9 9 8 10 10 11 12 12 13 13
REMARK SMILES IDX 18 14 14 15 17 16 15 17 19 18 16 19
REMARK H PARENT
ROOT
ATOM      1  O   UNL     1      -1.229  -2.968   1.146  1.00  0.00    -0.289 OA
ATOM      2  C   UNL     1      -1.048  -1.771   0.889  1.00  0.00    +0.185 C 
ENDROOT
BRANCH   2   3
ATOM      3  C   UNL     1       0.340  -1.332   0.544  1.00  0.00    +0.053 C 
ATOM      4  C   UNL     1       0.681  -0.175  -0.042  1.00  0.00    +0.012 C 
BRANCH   4   5
ATOM      5  C   UNL     1       2.067   0.196  -0.386  1.00  0.00    -0.026 A 
ATOM      6  C   UNL     1       2.475   1.506  -0.140  1.00  0.00    +0.008 A 
ATOM      7  C   UNL     1       2.982  -0.692  -0.999  1.00  0.00    -0.001 A 
ATOM      8  C   UNL     1       3.763   1.905  -0.478  1.00  0.00    -0.000 A 
ATOM      9  C   UNL     1       4.305  -0.337  -1.368  1.00  0.00    -0.109 A 
ATOM     10  C   UNL     1       4.647   0.996  -1.076  1.00  0.00    -0.009 A 
ATOM     11  O   UNL     1       5.123  -1.148  -1.922  1.00  0.00    -0.872 OA
ENDBRANCH   4   5
ENDBRANCH   2   3
BRANCH   2  12
ATOM     12  C   UNL     1      -2.212  -0.844   0.765  1.00  0.00    +0.014 A 
ATOM     13  C   UNL     1      -3.157  -1.225  -0.204  1.00  0.00    +0.011 A 
ATOM     14  C   UNL     1      -2.393   0.301   1.579  1.00  0.00    -0.098 A 
ATOM     15  C   UNL     1      -4.309  -0.464  -0.425  1.00  0.00    -0.008 A 
ATOM     16  C   UNL     1      -3.601   1.019   1.279  1.00  0.00    -0.016 A 
ATOM     17  C   UNL     1      -4.594   0.698   0.299  1.00  0.00    -0.110 A 
ATOM     18  O   UNL     1      -1.593   0.679   2.510  1.00  0.00    -0.872 OA
ATOM     19  O   UNL     1      -5.653   1.391   0.095  1.00  0.00    -0.872 OA
ENDBRANCH   2  12
TORSDOF 3
