REMARK SMILES Cc1ccc(NC(=O)Nc2cc(N3CCOCC3)cc(C(F)(F)F)c2)cc1-c1nc2c(cnn2Cc2ccccc2)n1C
REMARK SMILES IDX 1 1 2 2 3 3 4 4 5 5 26 6 27 7 28 8 29 9 42 10 30 11 31 12
REMARK SMILES IDX 34 13 32 14 33 15 43 16 35 17 36 18 37 19 41 20 38 21 40 22
REMARK SMILES IDX 39 23 6 24 7 25 8 26 9 27 10 30 11 31 25 32 12 33 20 34
REMARK SMILES IDX 19 35 13 36 14 37 18 38 15 39 17 40 16 41 21 42 22 43 23 44
REMARK SMILES IDX 24 45
REMARK H PARENT 6 28 9 29
ROOT
ATOM      1  C   UNL     1      -4.578   0.347  -2.604  1.00  0.00    +0.045 C 
ATOM      2  C   UNL     1      -3.144  -0.109  -2.561  1.00  0.00    -0.040 A 
ATOM      3  C   UNL     1      -2.640  -0.875  -3.623  1.00  0.00    +0.006 A 
ATOM      4  C   UNL     1      -1.313  -1.311  -3.625  1.00  0.00    +0.026 A 
ATOM      5  C   UNL     1      -0.458  -0.985  -2.570  1.00  0.00    +0.043 A 
ATOM      6  C   UNL     1      -0.944  -0.193  -1.529  1.00  0.00    +0.038 A 
ATOM      7  C   UNL     1      -2.284   0.239  -1.500  1.00  0.00    +0.022 A 
ENDROOT
BRANCH   7   8
ATOM      8  C   UNL     1      -2.747   1.063  -0.374  1.00  0.00    +0.143 A 
ATOM      9  N   UNL     1      -3.385   2.231  -0.503  1.00  0.00    -0.209 NA
ATOM     10  N   UNL     1      -2.596   0.715   0.974  1.00  0.00    -0.324 N 
ATOM     11  C   UNL     1      -3.603   2.588   0.771  1.00  0.00    +0.177 A 
ATOM     12  C   UNL     1      -3.149   1.732   1.697  1.00  0.00    +0.108 A 
ATOM     13  N   UNL     1      -4.190   3.623   1.439  1.00  0.00    -0.241 N 
ATOM     14  C   UNL     1      -3.495   2.339   2.936  1.00  0.00    +0.163 A 
ATOM     15  N   UNL     1      -4.136   3.528   2.816  1.00  0.00    -0.177 NA
ATOM     16  C   UNL     1      -2.029  -0.474   1.549  1.00  0.00    +0.152 C 
BRANCH  13  17
ATOM     17  C   UNL     1      -4.800   4.762   0.782  1.00  0.00    +0.182 C 
BRANCH  17  18
ATOM     18  C   UNL     1      -6.218   4.464   0.363  1.00  0.00    -0.026 A 
ATOM     19  C   UNL     1      -6.491   3.961  -0.918  1.00  0.00    +0.005 A 
ATOM     20  C   UNL     1      -7.281   4.653   1.258  1.00  0.00    +0.005 A 
ATOM     21  C   UNL     1      -7.802   3.672  -1.301  1.00  0.00    +0.000 A 
ATOM     22  C   UNL     1      -8.591   4.365   0.873  1.00  0.00    +0.000 A 
ATOM     23  C   UNL     1      -8.851   3.878  -0.407  1.00  0.00    +0.000 A 
ENDBRANCH  17  18
ENDBRANCH  13  17
ENDBRANCH   7   8
BRANCH   5  24
ATOM     24  N   UNL     1       0.868  -1.464  -2.635  1.00  0.00    -0.308 N 
ATOM     25  C   UNL     1       1.820  -1.437  -1.624  1.00  0.00    +0.323 C 
ATOM     26  O   UNL     1       1.593  -1.120  -0.463  1.00  0.00    -0.248 OA
ATOM     27  N   UNL     1       3.056  -1.825  -2.121  1.00  0.00    -0.308 N 
ATOM     28  H   UNL     1       1.114  -1.973  -3.469  1.00  0.00    +0.171 HD
ATOM     29  H   UNL     1       3.135  -1.863  -3.125  1.00  0.00    +0.171 HD
BRANCH  27  30
ATOM     30  C   UNL     1       4.244  -2.056  -1.395  1.00  0.00    +0.045 A 
ATOM     31  C   UNL     1       4.317  -2.077   0.003  1.00  0.00    +0.052 A 
ATOM     32  C   UNL     1       5.404  -2.300  -2.133  1.00  0.00    +0.039 A 
ATOM     33  C   UNL     1       5.522  -2.307   0.693  1.00  0.00    +0.039 A 
ATOM     34  C   UNL     1       6.620  -2.557  -1.487  1.00  0.00    +0.060 A 
ATOM     35  C   UNL     1       6.663  -2.550  -0.082  1.00  0.00    +0.039 A 
BRANCH  33  36
ATOM     36  N   UNL     1       5.552  -2.311   2.083  1.00  0.00    -0.367 N 
ATOM     37  C   UNL     1       6.660  -2.947   2.819  1.00  0.00    +0.145 C 
ATOM     38  C   UNL     1       4.930  -1.175   2.798  1.00  0.00    +0.145 C 
ATOM     39  C   UNL     1       6.241  -3.249   4.265  1.00  0.00    +0.181 C 
ATOM     40  C   UNL     1       4.605  -1.565   4.248  1.00  0.00    +0.181 C 
ATOM     41  O   UNL     1       5.758  -2.075   4.935  1.00  0.00    -0.378 OA
ENDBRANCH  33  36
BRANCH  34  42
ATOM     42  C   UNL     1       7.876  -2.795  -2.284  1.00  0.00    +0.416 C 
ATOM     43  F   UNL     1       8.756  -3.630  -1.665  1.00  0.00    -0.166 F 
ATOM     44  F   UNL     1       7.632  -3.352  -3.504  1.00  0.00    -0.166 F 
ATOM     45  F   UNL     1       8.559  -1.644  -2.531  1.00  0.00    -0.166 F 
ENDBRANCH  34  42
ENDBRANCH  27  30
ENDBRANCH   5  24
TORSDOF 7
