REMARK SMILES C[NH+]1CCN(c2ccc(-c3cnn4c(N)c(-c5ccc(NC(=O)CCC6CCCC6)cc5)cnc34)cc2)CC1
REMARK SMILES IDX 17 1 18 2 19 3 20 4 31 5 32 6 16 7 10 8 11 9 35 10 12 11
REMARK SMILES IDX 34 12 13 13 33 14 14 15 9 16 6 17 7 18 37 19 8 20 36 21 5 22
REMARK SMILES IDX 2 23 3 24 39 25 4 26 38 27 1 28 15 30 21 33 22 34 23 35
REMARK SMILES IDX 24 37 25 38 26 39 27 40 30 41 28 42 29 43
REMARK H PARENT 2 29 15 31 15 32 21 36
ROOT
ATOM      1  C   UNL     1      -1.957  -1.021  -0.979  1.00  0.00    -0.013 A 
ATOM      2  C   UNL     1      -2.599  -0.295   0.028  1.00  0.00    +0.011 A 
ATOM      3  C   UNL     1      -3.904  -0.618   0.418  1.00  0.00    +0.027 A 
ATOM      4  C   UNL     1      -4.588  -1.672  -0.190  1.00  0.00    +0.041 A 
ATOM      5  C   UNL     1      -3.945  -2.397  -1.201  1.00  0.00    +0.027 A 
ATOM      6  C   UNL     1      -2.640  -2.077  -1.592  1.00  0.00    +0.011 A 
ENDROOT
BRANCH   1   7
ATOM      7  C   UNL     1      -0.582  -0.684  -1.373  1.00  0.00    +0.042 C 
ATOM      8  C   UNL     1       3.326   0.271  -2.397  1.00  0.00    +0.047 A 
ATOM      9  C   UNL     1       2.989   0.674  -3.706  1.00  0.00    +0.146 A 
ATOM     10  C   UNL     1       2.121  -0.116  -1.833  1.00  0.00    +0.165 A 
ATOM     11  N   UNL     1       1.691   0.562  -3.978  1.00  0.00    -0.172 NA
ATOM     12  N   UNL     1       1.796  -0.584  -0.588  1.00  0.00    -0.236 NA
ATOM     13  N   UNL     1       1.146   0.073  -2.823  1.00  0.00    -0.198 N 
ATOM     14  C   UNL     1       0.538  -0.841  -0.391  1.00  0.00    +0.126 C 
ATOM     15  C   UNL     1      -0.227  -0.213  -2.589  1.00  0.00    +0.136 C 
BRANCH   8  16
ATOM     16  C   UNL     1       4.618   0.269  -1.731  1.00  0.00    -0.013 A 
ATOM     17  C   UNL     1       7.176   0.286  -0.444  1.00  0.00    +0.037 A 
ATOM     18  C   UNL     1       6.806   1.274  -1.370  1.00  0.00    +0.026 A 
ATOM     19  C   UNL     1       6.221  -0.708  -0.183  1.00  0.00    +0.026 A 
ATOM     20  C   UNL     1       5.555   1.267  -2.007  1.00  0.00    +0.011 A 
ATOM     21  C   UNL     1       4.969  -0.722  -0.815  1.00  0.00    +0.011 A 
BRANCH  17  22
ATOM     22  N   UNL     1       8.403   0.315   0.200  1.00  0.00    -0.360 N 
ATOM     23  N   UNL     1      10.019   1.594   1.884  1.00  0.00    -0.334 N 
ATOM     24  C   UNL     1       9.841   0.121   2.227  1.00  0.00    +0.283 C 
ATOM     25  C   UNL     1      10.393   1.778   0.414  1.00  0.00    +0.283 C 
ATOM     26  C   UNL     1       8.614  -0.430   1.458  1.00  0.00    +0.178 C 
ATOM     27  C   UNL     1       9.618   0.787  -0.485  1.00  0.00    +0.178 C 
ATOM     28  C   UNL     1      10.909   2.334   2.820  1.00  0.00    +0.332 C 
ATOM     29  H   UNL     1       9.066   1.988   1.946  1.00  0.00    +0.347 HD
ENDBRANCH  17  22
ENDBRANCH   8  16
BRANCH  15  30
ATOM     30  N   UNL     1      -1.096   0.033  -3.634  1.00  0.00    -0.383 N 
ATOM     31  H   UNL     1      -0.701   0.430  -4.486  1.00  0.00    +0.158 HD
ATOM     32  H   UNL     1      -2.098  -0.049  -3.519  1.00  0.00    +0.158 HD
ENDBRANCH  15  30
ENDBRANCH   1   7
BRANCH   4  33
ATOM     33  N   UNL     1      -5.902  -2.058   0.144  1.00  0.00    -0.326 N 
ATOM     34  C   UNL     1      -6.720  -1.510   1.121  1.00  0.00    +0.224 C 
ATOM     35  O   UNL     1      -6.421  -0.609   1.895  1.00  0.00    -0.275 OA
ATOM     36  H   UNL     1      -6.288  -2.828  -0.388  1.00  0.00    +0.169 HD
BRANCH  34  37
ATOM     37  C   UNL     1      -8.078  -2.200   1.161  1.00  0.00    +0.100 C 
BRANCH  37  38
ATOM     38  C   UNL     1      -9.121  -1.462   2.002  1.00  0.00    +0.013 C 
BRANCH  38  39
ATOM     39  C   UNL     1      -9.598  -0.146   1.379  1.00  0.00    -0.011 C 
ATOM     40  C   UNL     1     -10.325  -0.305   0.044  1.00  0.00    +0.003 C 
ATOM     41  C   UNL     1     -10.649   0.556   2.238  1.00  0.00    +0.003 C 
ATOM     42  C   UNL     1     -11.164   0.964  -0.101  1.00  0.00    +0.000 C 
ATOM     43  C   UNL     1     -11.251   1.585   1.292  1.00  0.00    +0.000 C 
ENDBRANCH  38  39
ENDBRANCH  37  38
ENDBRANCH  34  37
ENDBRANCH   4  33
TORSDOF 8
