REMARK SMILES O=C(c1ccccc1)c1nc(NCc2cccnc2)nc2ccsc12
REMARK SMILES IDX 9 1 10 2 11 3 20 4 21 5 22 6 23 7 24 8 25 9 2 10 1 11 3 12
REMARK SMILES IDX 4 13 8 14 5 15 7 16 6 17 12 18 13 20 14 21 15 22 19 23 16 24
REMARK SMILES IDX 18 25 17 26
REMARK H PARENT 12 19
ROOT
ATOM      1  C   UNL     1       1.451   1.844  -0.122  1.00  0.00    +0.134 A 
ATOM      2  N   UNL     1       0.436   0.949  -0.053  1.00  0.00    -0.208 NA
ATOM      3  C   UNL     1      -0.635   1.109  -0.833  1.00  0.00    +0.224 A 
ATOM      4  N   UNL     1      -0.797   2.099  -1.703  1.00  0.00    -0.212 NA
ATOM      5  C   UNL     1       0.208   3.000  -1.777  1.00  0.00    +0.087 A 
ATOM      6  C   UNL     1       0.220   4.131  -2.646  1.00  0.00    +0.041 A 
ATOM      7  C   UNL     1       1.370   4.875  -2.521  1.00  0.00    +0.068 A 
ATOM      8  S   UNL     1       2.433   4.209  -1.365  1.00  0.00    -0.140 S 
ATOM      9  C   UNL     1       1.360   2.914  -1.000  1.00  0.00    +0.083 A 
ENDROOT
BRANCH   1  10
ATOM     10  C   UNL     1       2.594   1.638   0.799  1.00  0.00    +0.213 C 
ATOM     11  O   UNL     1       3.243   2.598   1.207  1.00  0.00    -0.287 OA
BRANCH  10  12
ATOM     12  C   UNL     1       2.962   0.274   1.272  1.00  0.00    +0.024 A 
ATOM     13  C   UNL     1       3.573   0.151   2.527  1.00  0.00    +0.012 A 
ATOM     14  C   UNL     1       2.762  -0.870   0.489  1.00  0.00    +0.012 A 
ATOM     15  C   UNL     1       3.951  -1.104   3.007  1.00  0.00    +0.001 A 
ATOM     16  C   UNL     1       3.143  -2.125   0.973  1.00  0.00    +0.001 A 
ATOM     17  C   UNL     1       3.733  -2.241   2.231  1.00  0.00    +0.000 A 
ENDBRANCH  10  12
ENDBRANCH   1  10
BRANCH   3  18
ATOM     18  N   UNL     1      -1.652   0.202  -0.761  1.00  0.00    -0.350 N 
ATOM     19  H   UNL     1      -2.444   0.373  -1.361  1.00  0.00    +0.164 HD
BRANCH  18  20
ATOM     20  C   UNL     1      -1.627  -0.887   0.175  1.00  0.00    +0.153 C 
BRANCH  20  21
ATOM     21  C   UNL     1      -2.883  -1.699   0.038  1.00  0.00    -0.010 A 
ATOM     22  C   UNL     1      -4.076  -1.313   0.656  1.00  0.00    +0.009 A 
ATOM     23  C   UNL     1      -2.912  -2.850  -0.744  1.00  0.00    +0.116 A 
ATOM     24  C   UNL     1      -5.223  -2.084   0.488  1.00  0.00    +0.020 A 
ATOM     25  N   UNL     1      -4.010  -3.619  -0.923  1.00  0.00    -0.264 NA
ATOM     26  C   UNL     1      -5.139  -3.219  -0.302  1.00  0.00    +0.111 A 
ENDBRANCH  20  21
ENDBRANCH  18  20
ENDBRANCH   3  18
TORSDOF 5
