REMARK SMILES C=CCOc1ccc(/C=C(\C)C(=O)N[C@@H]2[C@H](O)[C@@H](O)[C@H]3OCO[C@H]3[C@@H]2O)cc1
REMARK SMILES IDX 9 1 10 2 11 3 8 4 5 5 6 6 28 7 7 8 27 9 4 10 3 11 2 12 1 13
REMARK SMILES IDX 12 14 13 15 14 16 15 18 16 19 25 20 18 21 24 22 20 23 23 24
REMARK SMILES IDX 21 25 22 26 17 27 26 29 19 31
REMARK H PARENT 14 17 17 28 26 30 19 32
ROOT
ATOM      1  C   UNL     1       1.180  -0.658  -1.258  1.00  0.00    +0.017 C 
ATOM      2  C   UNL     1       0.145  -0.324  -0.461  1.00  0.00    +0.014 C 
ATOM      3  C   UNL     1       0.242   0.548   0.756  1.00  0.00    +0.050 C 
ENDROOT
BRANCH   1   4
ATOM      4  C   UNL     1       2.573  -0.266  -1.032  1.00  0.00    -0.025 A 
ATOM      5  C   UNL     1       5.246   0.495  -0.619  1.00  0.00    +0.119 A 
ATOM      6  C   UNL     1       4.657  -0.468   0.201  1.00  0.00    +0.047 A 
ATOM      7  C   UNL     1       4.494   1.071  -1.645  1.00  0.00    +0.047 A 
ATOM      8  C   UNL     1       3.325  -0.848  -0.007  1.00  0.00    +0.012 A 
ATOM      9  C   UNL     1       3.165   0.693  -1.856  1.00  0.00    +0.012 A 
BRANCH   5  10
ATOM     10  O   UNL     1       6.530   0.957  -0.525  1.00  0.00    -0.490 OA
BRANCH  10  11
ATOM     11  C   UNL     1       7.359   0.376   0.479  1.00  0.00    +0.257 C 
BRANCH  11  12
ATOM     12  C   UNL     1       8.699   1.043   0.393  1.00  0.00    +0.006 C 
ATOM     13  C   UNL     1       9.863   0.402   0.220  1.00  0.00    +0.007 C 
ENDBRANCH  11  12
ENDBRANCH  10  11
ENDBRANCH   5  10
ENDBRANCH   1   4
BRANCH   2  14
ATOM     14  C   UNL     1      -1.197  -0.832  -0.898  1.00  0.00    +0.247 C 
ATOM     15  O   UNL     1      -1.410  -1.200  -2.047  1.00  0.00    -0.270 OA
ATOM     16  N   UNL     1      -2.162  -0.838   0.069  1.00  0.00    -0.344 N 
ATOM     17  H   UNL     1      -1.861  -0.709   1.030  1.00  0.00    +0.164 HD
BRANCH  16  18
ATOM     18  C   UNL     1      -3.520  -1.416  -0.026  1.00  0.00    +0.145 C 
ATOM     19  C   UNL     1      -4.373  -1.064  -1.270  1.00  0.00    +0.171 C 
ATOM     20  C   UNL     1      -4.302  -0.944   1.220  1.00  0.00    +0.171 C 
ATOM     21  C   UNL     1      -4.586   0.449  -1.384  1.00  0.00    +0.177 C 
ATOM     22  C   UNL     1      -4.621   0.568   1.164  1.00  0.00    +0.183 C 
ATOM     23  C   UNL     1      -5.269   1.005  -0.133  1.00  0.00    +0.184 C 
ATOM     24  O   UNL     1      -5.631   0.840   2.154  1.00  0.00    -0.347 OA
ATOM     25  O   UNL     1      -6.605   0.510   0.054  1.00  0.00    -0.347 OA
ATOM     26  C   UNL     1      -6.872   0.777   1.433  1.00  0.00    +0.324 C 
BRANCH  19  27
ATOM     27  O   UNL     1      -3.875  -1.581  -2.505  1.00  0.00    -0.388 OA
ATOM     28  H   UNL     1      -2.897  -1.469  -2.510  1.00  0.00    +0.211 HD
ENDBRANCH  19  27
BRANCH  20  29
ATOM     29  O   UNL     1      -3.518  -1.198   2.402  1.00  0.00    -0.388 OA
ATOM     30  H   UNL     1      -4.051  -0.858   3.149  1.00  0.00    +0.211 HD
ENDBRANCH  20  29
BRANCH  21  31
ATOM     31  O   UNL     1      -5.361   0.746  -2.551  1.00  0.00    -0.388 OA
ATOM     32  H   UNL     1      -5.099   0.075  -3.214  1.00  0.00    +0.211 HD
ENDBRANCH  21  31
ENDBRANCH  16  18
ENDBRANCH   2  14
TORSDOF 9
