REMARK SMILES CC(=O)N(c1ccc(Nc2c3ccc([N+](=O)[O-])cc3nc3c(C)cccc23)cc1)S(C)(=O)=O
REMARK SMILES IDX 5 1 6 2 7 3 8 4 28 5 29 6 4 7 2 8 3 9 1 10 30 11 32 12 33 13
REMARK SMILES IDX 31 14 9 15 10 17 11 18 27 19 12 20 19 21 26 22 21 23 13 24
REMARK SMILES IDX 18 25 20 26 25 27 22 28 14 29 24 30 23 31 15 32 16 33 17 34
REMARK H PARENT 9 16
ROOT
ATOM      1  C   UNL     1       3.262   0.443   0.699  1.00  0.00    +0.060 A 
ATOM      2  C   UNL     1       2.338   0.363  -0.342  1.00  0.00    +0.029 A 
ATOM      3  C   UNL     1       1.015   0.002  -0.072  1.00  0.00    +0.028 A 
ATOM      4  C   UNL     1       0.598  -0.290   1.233  1.00  0.00    +0.039 A 
ATOM      5  C   UNL     1       1.538  -0.201   2.268  1.00  0.00    +0.028 A 
ATOM      6  C   UNL     1       2.864   0.157   2.006  1.00  0.00    +0.029 A 
ENDROOT
BRANCH   1   7
ATOM      7  N   UNL     1       4.619   0.795   0.403  1.00  0.00    -0.207 N 
BRANCH   7   8
ATOM      8  C   UNL     1       5.557  -0.266   0.226  1.00  0.00    +0.237 C 
ATOM      9  O   UNL     1       6.766  -0.055   0.184  1.00  0.00    -0.274 OA
ATOM     10  C   UNL     1       5.038  -1.670   0.033  1.00  0.00    +0.116 C 
ENDBRANCH   7   8
BRANCH   7  11
ATOM     11  S   UNL     1       5.099   2.310   0.987  1.00  0.00    +0.238 S 
ATOM     12  O   UNL     1       3.964   3.211   0.902  1.00  0.00    -0.206 OA
ATOM     13  O   UNL     1       5.782   2.124   2.250  1.00  0.00    -0.206 OA
ATOM     14  C   UNL     1       6.263   2.866  -0.244  1.00  0.00    +0.183 C 
ENDBRANCH   7  11
ENDBRANCH   1   7
BRANCH   4  15
ATOM     15  N   UNL     1      -0.735  -0.606   1.544  1.00  0.00    -0.354 N 
ATOM     16  H   UNL     1      -0.899  -1.017   2.457  1.00  0.00    +0.167 HD
BRANCH  15  17
ATOM     17  C   UNL     1      -1.883  -0.578   0.708  1.00  0.00    +0.057 A 
ATOM     18  C   UNL     1      -2.410   0.656   0.245  1.00  0.00    +0.025 A 
ATOM     19  C   UNL     1      -2.522  -1.798   0.366  1.00  0.00    +0.025 A 
ATOM     20  C   UNL     1      -1.876   1.929   0.572  1.00  0.00    +0.019 A 
ATOM     21  C   UNL     1      -3.551   0.594  -0.574  1.00  0.00    +0.080 A 
ATOM     22  C   UNL     1      -2.055  -3.064   0.792  1.00  0.00    +0.012 A 
ATOM     23  C   UNL     1      -3.666  -1.730  -0.454  1.00  0.00    +0.076 A 
ATOM     24  C   UNL     1      -2.442   3.103   0.078  1.00  0.00    +0.086 A 
ATOM     25  C   UNL     1      -4.109   1.765  -1.064  1.00  0.00    +0.114 A 
ATOM     26  N   UNL     1      -4.145  -0.557  -0.906  1.00  0.00    -0.247 NA
ATOM     27  C   UNL     1      -2.711  -4.237   0.431  1.00  0.00    +0.001 A 
ATOM     28  C   UNL     1      -4.317  -2.920  -0.809  1.00  0.00    -0.025 A 
ATOM     29  C   UNL     1      -3.562   3.013  -0.746  1.00  0.00    +0.271 A 
ATOM     30  C   UNL     1      -3.843  -4.164  -0.367  1.00  0.00    +0.006 A 
ATOM     31  C   UNL     1      -5.544  -2.870  -1.683  1.00  0.00    +0.047 C 
BRANCH  29  32
ATOM     32  N   UNL     1      -4.176   4.233  -1.279  1.00  0.00    +0.062 N 
ATOM     33  O   UNL     1      -3.684   5.319  -0.943  1.00  0.00    -0.258 OA
ATOM     34  O   UNL     1      -5.150   4.107  -2.034  1.00  0.00    -0.258 OA
ENDBRANCH  29  32
ENDBRANCH  15  17
ENDBRANCH   4  15
TORSDOF 6
