REMARK SMILES CC(C)CCn1c(=O)c(C2=[NH+]S(=O)(=O)c3cc(CC[NH3+])ccc3N2)c([O-])c2ccccc21
REMARK SMILES IDX 10 1 11 2 12 3 13 4 14 5 15 6 16 7 17 8 21 9 22 10 23 11
REMARK SMILES IDX 24 12 9 15 6 16 7 17 32 18 8 19 31 20 27 21 25 22 30 23
REMARK SMILES IDX 28 24 29 25 26 26 5 27 4 28 2 29 1 30 3 31 18 32 19 33 20 34
REMARK H PARENT 11 13 24 14 20 35 20 36 20 37
ROOT
ATOM      1  C   UNL     1       0.891  -0.198  -0.569  1.00  0.00    +0.300 C 
ATOM      2  N   UNL     1       1.077   1.036  -0.950  1.00  0.00    -0.161 N 
ATOM      3  S   UNL     1       2.506   1.687  -1.161  1.00  0.00    +0.333 S 
ATOM      4  O   UNL     1       2.722   2.009  -2.555  1.00  0.00    -0.179 OA
ATOM      5  O   UNL     1       2.762   2.687  -0.143  1.00  0.00    -0.179 OA
ATOM      6  C   UNL     1       3.666   0.421  -0.808  1.00  0.00    +0.155 A 
ATOM      7  C   UNL     1       5.045   0.681  -0.880  1.00  0.00    +0.033 A 
ATOM      8  C   UNL     1       5.959  -0.338  -0.579  1.00  0.00    -0.041 A 
ATOM      9  C   UNL     1       5.461  -1.599  -0.222  1.00  0.00    +0.008 A 
ATOM     10  C   UNL     1       4.080  -1.825  -0.150  1.00  0.00    +0.053 A 
ATOM     11  C   UNL     1       3.165  -0.808  -0.439  1.00  0.00    +0.147 A 
ATOM     12  N   UNL     1       1.855  -1.064  -0.332  1.00  0.00    -0.238 N 
ATOM     13  H   UNL     1       0.244   1.595  -1.108  1.00  0.00    +0.327 HD
ATOM     14  H   UNL     1       1.479  -1.994  -0.025  1.00  0.00    +0.312 HD
ENDROOT
BRANCH   1  15
ATOM     15  C   UNL     1      -0.601  -0.740  -0.349  1.00  0.00    +0.123 C 
ATOM     16  N   UNL     1      -2.999  -0.208  -0.526  1.00  0.00    -0.308 N 
ATOM     17  C   UNL     1      -1.695   0.214  -0.663  1.00  0.00    +0.266 C 
ATOM     18  C   UNL     1      -3.293  -1.514  -0.032  1.00  0.00    +0.051 A 
ATOM     19  O   UNL     1      -1.368   1.349  -1.035  1.00  0.00    -0.268 OA
ATOM     20  C   UNL     1      -4.621  -1.947   0.159  1.00  0.00    +0.027 A 
ATOM     21  C   UNL     1      -2.233  -2.392   0.279  1.00  0.00    -0.009 A 
ATOM     22  C   UNL     1      -0.784  -2.003   0.111  1.00  0.00    -0.078 C 
ATOM     23  C   UNL     1      -4.907  -3.226   0.641  1.00  0.00    +0.002 A 
ATOM     24  C   UNL     1      -2.553  -3.680   0.765  1.00  0.00    +0.009 A 
ATOM     25  C   UNL     1      -3.872  -4.095   0.944  1.00  0.00    +0.001 A 
ATOM     26  O   UNL     1       0.157  -2.814   0.388  1.00  0.00    -0.871 OA
BRANCH  16  27
ATOM     27  C   UNL     1      -4.067   0.736  -0.864  1.00  0.00    +0.126 C 
BRANCH  27  28
ATOM     28  C   UNL     1      -4.549   1.518   0.364  1.00  0.00    +0.025 C 
BRANCH  28  29
ATOM     29  C   UNL     1      -5.594   2.597   0.029  1.00  0.00    -0.016 C 
ATOM     30  C   UNL     1      -6.895   1.998  -0.508  1.00  0.00    +0.007 C 
ATOM     31  C   UNL     1      -5.889   3.438   1.274  1.00  0.00    +0.007 C 
ENDBRANCH  28  29
ENDBRANCH  27  28
ENDBRANCH  16  27
ENDBRANCH   1  15
BRANCH   8  32
ATOM     32  C   UNL     1       7.448  -0.089  -0.651  1.00  0.00    +0.096 C 
BRANCH  32  33
ATOM     33  C   UNL     1       7.991   0.733   0.522  1.00  0.00    +0.263 C 
BRANCH  33  34
ATOM     34  N   UNL     1       7.832   0.002   1.808  1.00  0.00    -0.357 N 
ATOM     35  H   UNL     1       8.202   0.554   2.594  1.00  0.00    +0.344 HD
ATOM     36  H   UNL     1       6.843  -0.192   2.018  1.00  0.00    +0.344 HD
ATOM     37  H   UNL     1       8.333  -0.896   1.808  1.00  0.00    +0.344 HD
ENDBRANCH  33  34
ENDBRANCH  32  33
ENDBRANCH   8  32
TORSDOF 7
