REMARK SMILES CCN1c2ncc(CO)cc2C(=O)N(C)c2cccnc21
REMARK SMILES IDX 3 1 4 2 5 3 6 4 7 5 10 6 11 7 12 8 13 9 14 10 15 11 16 12
REMARK SMILES IDX 17 13 18 14 19 15 20 16 21 17 2 18 1 19 8 20 9 21
REMARK H PARENT 9 22
ROOT
ATOM      1  N   UNL     1      -0.642  -1.141  -0.256  1.00  0.00    -0.309 N 
ATOM      2  C   UNL     1       0.716  -0.788  -0.225  1.00  0.00    +0.147 A 
ATOM      3  N   UNL     1       1.573  -1.445  -1.060  1.00  0.00    -0.238 NA
ATOM      4  C   UNL     1       2.875  -1.079  -1.095  1.00  0.00    +0.119 A 
ATOM      5  C   UNL     1       3.417  -0.072  -0.319  1.00  0.00    -0.003 A 
ATOM      6  C   UNL     1       2.546   0.567   0.561  1.00  0.00    +0.025 A 
ATOM      7  C   UNL     1       1.183   0.219   0.606  1.00  0.00    +0.083 A 
ATOM      8  C   UNL     1       0.364   0.844   1.657  1.00  0.00    +0.261 C 
ATOM      9  O   UNL     1       0.944   1.062   2.727  1.00  0.00    -0.269 OA
ATOM     10  N   UNL     1      -0.947   1.271   1.431  1.00  0.00    -0.308 N 
ATOM     11  C   UNL     1      -1.544   2.088   2.488  1.00  0.00    +0.154 C 
ATOM     12  C   UNL     1      -1.746   0.996   0.271  1.00  0.00    +0.087 A 
ATOM     13  C   UNL     1      -2.775   1.897  -0.073  1.00  0.00    +0.032 A 
ATOM     14  C   UNL     1      -3.638   1.638  -1.131  1.00  0.00    +0.022 A 
ATOM     15  C   UNL     1      -3.466   0.463  -1.820  1.00  0.00    +0.113 A 
ATOM     16  N   UNL     1      -2.504  -0.431  -1.525  1.00  0.00    -0.237 NA
ATOM     17  C   UNL     1      -1.635  -0.176  -0.504  1.00  0.00    +0.158 A 
ENDROOT
BRANCH   1  18
ATOM     18  C   UNL     1      -0.913  -2.497  -0.762  1.00  0.00    +0.122 C 
ATOM     19  C   UNL     1      -2.084  -3.147  -0.027  1.00  0.00    +0.028 C 
ENDBRANCH   1  18
BRANCH   5  20
ATOM     20  C   UNL     1       4.878   0.250  -0.371  1.00  0.00    +0.193 C 
BRANCH  20  21
ATOM     21  O   UNL     1       5.062   1.659  -0.359  1.00  0.00    -0.392 OA
ATOM     22  H   UNL     1       6.020   1.818  -0.349  1.00  0.00    +0.211 HD
ENDBRANCH  20  21
ENDBRANCH   5  20
TORSDOF 3
