REMARK SMILES Nc1ccc(NC(=O)c2ccc(CNC(=O)OCc3cccnc3)cc2)cc1
REMARK SMILES IDX 9 1 10 2 11 3 12 4 25 5 26 6 7 7 6 8 8 9 5 11 2 12 3 13
REMARK SMILES IDX 28 14 4 15 27 16 1 17 13 20 14 21 15 22 16 23 17 25 18 26
REMARK SMILES IDX 19 27 20 28 24 29 21 30 23 31 22 32
REMARK H PARENT 6 10 1 18 1 19 14 24
ROOT
ATOM      1  C   UNL     1       1.942  -0.944  -0.567  1.00  0.00    +0.040 A 
ATOM      2  C   UNL     1       1.194   0.236  -0.479  1.00  0.00    +0.014 A 
ATOM      3  C   UNL     1      -0.148   0.242  -0.871  1.00  0.00    +0.006 A 
ATOM      4  C   UNL     1      -0.756  -0.927  -1.353  1.00  0.00    -0.029 A 
ATOM      5  C   UNL     1      -0.007  -2.111  -1.411  1.00  0.00    +0.006 A 
ATOM      6  C   UNL     1       1.333  -2.120  -1.019  1.00  0.00    +0.014 A 
ENDROOT
BRANCH   1   7
ATOM      7  C   UNL     1       3.373  -0.996  -0.154  1.00  0.00    +0.255 C 
ATOM      8  N   UNL     1       4.109   0.130  -0.473  1.00  0.00    -0.322 N 
ATOM      9  O   UNL     1       3.780  -2.016   0.390  1.00  0.00    -0.269 OA
ATOM     10  H   UNL     1       3.649   0.837  -1.031  1.00  0.00    +0.170 HD
BRANCH   8  11
ATOM     11  C   UNL     1       5.460   0.387  -0.159  1.00  0.00    +0.041 A 
ATOM     12  C   UNL     1       8.154   1.050   0.381  1.00  0.00    +0.032 A 
ATOM     13  C   UNL     1       7.348   1.906  -0.368  1.00  0.00    +0.027 A 
ATOM     14  C   UNL     1       7.592  -0.125   0.879  1.00  0.00    +0.027 A 
ATOM     15  C   UNL     1       6.015   1.577  -0.641  1.00  0.00    +0.028 A 
ATOM     16  C   UNL     1       6.258  -0.460   0.608  1.00  0.00    +0.028 A 
BRANCH  12  17
ATOM     17  N   UNL     1       9.459   1.392   0.683  1.00  0.00    -0.399 N 
ATOM     18  H   UNL     1      10.055   0.734   1.166  1.00  0.00    +0.156 HD
ATOM     19  H   UNL     1       9.887   2.203   0.260  1.00  0.00    +0.156 HD
ENDBRANCH  12  17
ENDBRANCH   8  11
ENDBRANCH   1   7
BRANCH   4  20
ATOM     20  C   UNL     1      -2.210  -0.923  -1.740  1.00  0.00    +0.155 C 
BRANCH  20  21
ATOM     21  N   UNL     1      -3.045  -1.183  -0.599  1.00  0.00    -0.317 N 
ATOM     22  C   UNL     1      -4.399  -1.109  -0.669  1.00  0.00    +0.407 C 
ATOM     23  O   UNL     1      -5.035  -0.825  -1.672  1.00  0.00    -0.225 OA
ATOM     24  H   UNL     1      -2.640  -1.432   0.292  1.00  0.00    +0.167 HD
BRANCH  22  25
ATOM     25  O   UNL     1      -4.923  -1.397   0.544  1.00  0.00    -0.445 OA
BRANCH  25  26
ATOM     26  C   UNL     1      -6.351  -1.327   0.628  1.00  0.00    +0.272 C 
BRANCH  26  27
ATOM     27  C   UNL     1      -6.761   0.011   1.168  1.00  0.00    +0.008 A 
ATOM     28  C   UNL     1      -6.741   0.286   2.538  1.00  0.00    +0.010 A 
ATOM     29  C   UNL     1      -7.141   1.041   0.313  1.00  0.00    +0.118 A 
ATOM     30  C   UNL     1      -7.114   1.546   2.995  1.00  0.00    +0.020 A 
ATOM     31  N   UNL     1      -7.511   2.274   0.730  1.00  0.00    -0.264 NA
ATOM     32  C   UNL     1      -7.490   2.497   2.061  1.00  0.00    +0.111 A 
ENDBRANCH  26  27
ENDBRANCH  25  26
ENDBRANCH  22  25
ENDBRANCH  20  21
ENDBRANCH   4  20
TORSDOF 8
