REMARK SMILES COC(=O)c1cc(OC)cc([O-])c1C(=O)c1c([O-])cc(C)c(C2=CC(C)(C)Oc3c(CC=C(C)C)cc([O-])cc32)c1[O-]
REMARK SMILES IDX 16 1 17 2 18 3 19 4 20 5 21 6 22 7 41 8 42 9 14 10 15 11
REMARK SMILES IDX 13 12 5 13 6 14 7 15 11 16 10 17 12 18 3 19 4 20 2 21 1 22
REMARK SMILES IDX 8 23 9 24 23 25 24 26 40 27 25 28 39 29 29 30 28 31 37 32
REMARK SMILES IDX 30 33 36 34 26 35 27 36 38 37 31 38 32 39 33 40 34 41 35 42
REMARK H PARENT
ROOT
ATOM      1  C   UNL     1       2.152  -2.031   2.717  1.00  0.00    +0.007 A 
ATOM      2  C   UNL     1       1.561  -3.369   2.776  1.00  0.00    -0.098 A 
ATOM      3  O   UNL     1       2.100  -4.461   3.199  1.00  0.00    -0.872 OA
ATOM      4  C   UNL     1       0.254  -3.449   2.257  1.00  0.00    -0.004 A 
ATOM      5  C   UNL     1      -0.446  -2.396   1.640  1.00  0.00    -0.044 A 
ATOM      6  C   UNL     1      -1.789  -2.726   1.046  1.00  0.00    +0.045 C 
ATOM      7  C   UNL     1       0.128  -1.106   1.594  1.00  0.00    -0.022 A 
ATOM      8  C   UNL     1       1.442  -0.850   2.174  1.00  0.00    -0.090 A 
ATOM      9  O   UNL     1       1.941   0.342   2.185  1.00  0.00    -0.872 OA
ENDROOT
BRANCH   1  10
ATOM     10  C   UNL     1       3.642  -1.866   3.206  1.00  0.00    +0.192 C 
ATOM     11  O   UNL     1       4.001  -2.364   4.278  1.00  0.00    -0.289 OA
BRANCH  10  12
ATOM     12  C   UNL     1       4.677  -1.105   2.336  1.00  0.00    +0.029 A 
ATOM     13  C   UNL     1       4.548  -1.181   0.921  1.00  0.00    +0.074 A 
ATOM     14  C   UNL     1       5.266  -0.328   0.067  1.00  0.00    +0.062 A 
ATOM     15  C   UNL     1       6.165   0.565   0.604  1.00  0.00    +0.119 A 
ATOM     16  C   UNL     1       5.757  -0.293   2.901  1.00  0.00    -0.093 A 
ATOM     17  C   UNL     1       6.444   0.528   1.968  1.00  0.00    +0.038 A 
ATOM     18  O   UNL     1       6.146  -0.230   4.124  1.00  0.00    -0.872 OA
BRANCH  13  19
ATOM     19  C   UNL     1       3.798  -2.225   0.186  1.00  0.00    +0.338 C 
ATOM     20  O   UNL     1       3.193  -2.046  -0.867  1.00  0.00    -0.246 OA
BRANCH  19  21
ATOM     21  O   UNL     1       4.187  -3.438   0.659  1.00  0.00    -0.465 OA
ATOM     22  C   UNL     1       3.462  -4.529   0.108  1.00  0.00    +0.282 C 
ENDBRANCH  19  21
ENDBRANCH  13  19
BRANCH  15  23
ATOM     23  O   UNL     1       6.801   1.444  -0.237  1.00  0.00    -0.497 OA
ATOM     24  C   UNL     1       6.338   2.763   0.059  1.00  0.00    +0.278 C 
ENDBRANCH  15  23
ENDBRANCH  10  12
ENDBRANCH   1  10
BRANCH   7  25
ATOM     25  C   UNL     1      -0.570  -0.053   0.743  1.00  0.00    -0.008 C 
ATOM     26  C   UNL     1       0.142   0.316  -0.340  1.00  0.00    +0.029 C 
ATOM     27  C   UNL     1      -1.936   0.549   0.828  1.00  0.00    +0.024 A 
ATOM     28  C   UNL     1      -0.295   1.326  -1.340  1.00  0.00    +0.122 C 
ATOM     29  C   UNL     1      -2.795   0.391   1.944  1.00  0.00    +0.004 A 
ATOM     30  C   UNL     1      -2.434   1.277  -0.267  1.00  0.00    +0.131 A 
ATOM     31  O   UNL     1      -1.718   1.504  -1.419  1.00  0.00    -0.483 OA
ATOM     32  C   UNL     1      -4.137   0.869   2.004  1.00  0.00    -0.108 A 
ATOM     33  C   UNL     1      -3.741   1.791  -0.264  1.00  0.00    -0.002 A 
ATOM     34  C   UNL     1      -4.558   1.563   0.857  1.00  0.00    -0.001 A 
ATOM     35  C   UNL     1       0.129   0.862  -2.741  1.00  0.00    +0.061 C 
ATOM     36  C   UNL     1       0.345   2.688  -1.043  1.00  0.00    +0.061 C 
ATOM     37  O   UNL     1      -4.923   0.693   2.998  1.00  0.00    -0.872 OA
BRANCH  33  38
ATOM     38  C   UNL     1      -4.298   2.565  -1.432  1.00  0.00    +0.066 C 
BRANCH  38  39
ATOM     39  C   UNL     1      -4.891   1.677  -2.498  1.00  0.00    -0.023 C 
ATOM     40  C   UNL     1      -6.178   1.559  -2.880  1.00  0.00    -0.080 C 
ATOM     41  C   UNL     1      -6.562   0.591  -3.965  1.00  0.00    +0.039 C 
ATOM     42  C   UNL     1      -7.329   2.303  -2.267  1.00  0.00    +0.039 C 
ENDBRANCH  38  39
ENDBRANCH  33  38
ENDBRANCH   7  25
TORSDOF 8
