REMARK SMILES COc1ccc(-c2n[n-]c(-c3ccnc(C)c3)n2)cc1[N+](=O)[O-]
REMARK SMILES IDX 3 1 4 2 5 3 6 4 19 5 20 6 2 7 1 8 21 9 22 10 23 11 7 12 8 13
REMARK SMILES IDX 18 14 9 15 10 16 11 17 12 18 17 19 13 20 15 21 14 22 16 23
REMARK H PARENT
ROOT
ATOM      1  C   UNL     1       4.238   0.635   0.427  1.00  0.00    +0.196 A 
ATOM      2  C   UNL     1       3.987  -0.579   1.074  1.00  0.00    +0.054 A 
ATOM      3  C   UNL     1       2.689  -1.106   1.110  1.00  0.00    +0.014 A 
ATOM      4  C   UNL     1       1.627  -0.425   0.505  1.00  0.00    +0.003 A 
ATOM      5  C   UNL     1       1.850   0.787  -0.143  1.00  0.00    +0.099 A 
ATOM      6  C   UNL     1       3.152   1.292  -0.172  1.00  0.00    +0.311 A 
ENDROOT
BRANCH   1   7
ATOM      7  O   UNL     1       5.464   1.238   0.350  1.00  0.00    -0.490 OA
ATOM      8  C   UNL     1       6.573   0.534   0.895  1.00  0.00    +0.278 C 
ENDBRANCH   1   7
BRANCH   6   9
ATOM      9  N   UNL     1       3.371   2.544  -0.859  1.00  0.00    +0.066 N 
ATOM     10  O   UNL     1       3.012   3.579  -0.279  1.00  0.00    -0.258 OA
ATOM     11  O   UNL     1       3.883   2.493  -1.987  1.00  0.00    -0.258 OA
ENDBRANCH   6   9
BRANCH   4  12
ATOM     12  C   UNL     1       0.176  -1.033   0.554  1.00  0.00    +0.058 A 
ATOM     13  N   UNL     1      -0.154  -2.199   1.152  1.00  0.00    -0.262 NA
ATOM     14  N   UNL     1      -0.913  -0.466   0.004  1.00  0.00    -0.418 NA
ATOM     15  N   UNL     1      -1.497  -2.369   0.971  1.00  0.00    -0.353 NA
ATOM     16  C   UNL     1      -1.938  -1.299   0.270  1.00  0.00    -0.033 A 
BRANCH  16  17
ATOM     17  C   UNL     1      -3.430  -1.065  -0.170  1.00  0.00    -0.022 A 
ATOM     18  C   UNL     1      -4.406  -1.997   0.161  1.00  0.00    +0.028 A 
ATOM     19  C   UNL     1      -3.770   0.076  -0.891  1.00  0.00    +0.031 A 
ATOM     20  C   UNL     1      -5.699  -1.741  -0.251  1.00  0.00    +0.112 A 
ATOM     21  C   UNL     1      -5.098   0.249  -1.263  1.00  0.00    +0.038 A 
ATOM     22  N   UNL     1      -6.071  -0.644  -0.953  1.00  0.00    -0.262 NA
ATOM     23  C   UNL     1      -5.501   1.466  -2.039  1.00  0.00    +0.067 C 
ENDBRANCH  16  17
ENDBRANCH   4  12
TORSDOF 4
