REMARK SMILES O=C(Nc1cccc(-c2cn3ccnc3c(NCc3ccncc3)n2)c1)Nc1ccccc1Oc1ccccc1
REMARK SMILES IDX 4 1 5 2 6 3 7 4 8 5 26 6 3 7 1 8 2 9 27 10 28 13 29 14 33 15
REMARK SMILES IDX 30 16 32 17 31 18 34 19 35 20 36 21 40 22 37 23 39 24 38 25
REMARK SMILES IDX 9 26 10 27 25 28 11 29 16 30 12 31 15 32 17 33 13 34 14 35
REMARK SMILES IDX 18 37 19 38 20 39 24 40 21 41 23 42 22 43
REMARK H PARENT 3 11 27 12 17 36
ROOT
ATOM      1  C   UNL     1       0.773   0.977  -1.516  1.00  0.00    +0.043 A 
ATOM      2  C   UNL     1       0.466   2.246  -2.019  1.00  0.00    +0.026 A 
ATOM      3  C   UNL     1      -0.861   2.635  -2.203  1.00  0.00    +0.003 A 
ATOM      4  C   UNL     1      -1.894   1.754  -1.885  1.00  0.00    +0.010 A 
ATOM      5  C   UNL     1      -1.616   0.475  -1.383  1.00  0.00    +0.004 A 
ATOM      6  C   UNL     1      -0.272   0.107  -1.189  1.00  0.00    +0.036 A 
ENDROOT
BRANCH   1   7
ATOM      7  N   UNL     1       2.140   0.663  -1.356  1.00  0.00    -0.308 N 
ATOM      8  O   UNL     1       2.064  -1.590  -0.820  1.00  0.00    -0.248 OA
ATOM      9  C   UNL     1       2.695  -0.554  -0.986  1.00  0.00    +0.323 C 
ATOM     10  N   UNL     1       4.066  -0.431  -0.837  1.00  0.00    -0.304 N 
ATOM     11  H   UNL     1       2.790   1.396  -1.592  1.00  0.00    +0.171 HD
ATOM     12  H   UNL     1       4.464   0.494  -0.918  1.00  0.00    +0.172 HD
BRANCH  10  13
ATOM     13  C   UNL     1       5.008  -1.437  -0.525  1.00  0.00    +0.085 A 
ATOM     14  C   UNL     1       4.690  -2.786  -0.361  1.00  0.00    +0.030 A 
ATOM     15  C   UNL     1       6.348  -1.040  -0.367  1.00  0.00    +0.150 A 
ATOM     16  C   UNL     1       5.690  -3.717  -0.057  1.00  0.00    +0.002 A 
ATOM     17  C   UNL     1       7.352  -1.971  -0.083  1.00  0.00    +0.049 A 
ATOM     18  C   UNL     1       7.017  -3.313   0.080  1.00  0.00    +0.004 A 
BRANCH  15  19
ATOM     19  O   UNL     1       6.668   0.289  -0.569  1.00  0.00    -0.455 OA
BRANCH  19  20
ATOM     20  C   UNL     1       7.237   0.962   0.490  1.00  0.00    +0.127 A 
ATOM     21  C   UNL     1       6.832   0.794   1.817  1.00  0.00    +0.047 A 
ATOM     22  C   UNL     1       8.218   1.903   0.171  1.00  0.00    +0.047 A 
ATOM     23  C   UNL     1       7.436   1.547   2.826  1.00  0.00    +0.004 A 
ATOM     24  C   UNL     1       8.819   2.653   1.182  1.00  0.00    +0.004 A 
ATOM     25  C   UNL     1       8.430   2.473   2.509  1.00  0.00    +0.000 A 
ENDBRANCH  19  20
ENDBRANCH  15  19
ENDBRANCH  10  13
ENDBRANCH   1   7
BRANCH   5  26
ATOM     26  C   UNL     1      -2.737  -0.438  -1.041  1.00  0.00    +0.089 C 
ATOM     27  C   UNL     1      -2.628  -1.761  -1.291  1.00  0.00    +0.122 C 
ATOM     28  N   UNL     1      -3.883   0.135  -0.495  1.00  0.00    -0.226 NA
ATOM     29  N   UNL     1      -3.692  -2.576  -0.972  1.00  0.00    -0.302 N 
ATOM     30  C   UNL     1      -4.907  -0.626  -0.181  1.00  0.00    +0.170 C 
ATOM     31  C   UNL     1      -3.890  -3.924  -1.093  1.00  0.00    +0.113 A 
ATOM     32  C   UNL     1      -4.829  -2.055  -0.423  1.00  0.00    +0.180 A 
ATOM     33  N   UNL     1      -6.040  -0.076   0.366  1.00  0.00    -0.363 N 
ATOM     34  C   UNL     1      -5.159  -4.144  -0.599  1.00  0.00    +0.132 A 
ATOM     35  N   UNL     1      -5.744  -2.972  -0.182  1.00  0.00    -0.234 NA
ATOM     36  H   UNL     1      -6.795  -0.715   0.592  1.00  0.00    +0.162 HD
BRANCH  33  37
ATOM     37  C   UNL     1      -6.197   1.321   0.663  1.00  0.00    +0.150 C 
BRANCH  37  38
ATOM     38  C   UNL     1      -7.562   1.561   1.253  1.00  0.00    -0.026 A 
ATOM     39  C   UNL     1      -8.663   1.813   0.429  1.00  0.00    +0.025 A 
ATOM     40  C   UNL     1      -7.766   1.488   2.634  1.00  0.00    +0.025 A 
ATOM     41  C   UNL     1      -9.903   2.002   1.018  1.00  0.00    +0.111 A 
ATOM     42  C   UNL     1      -9.046   1.691   3.127  1.00  0.00    +0.111 A 
ATOM     43  N   UNL     1     -10.118   1.951   2.349  1.00  0.00    -0.265 NA
ENDBRANCH  37  38
ENDBRANCH  33  37
ENDBRANCH   5  26
TORSDOF 7
