REMARK SMILES CCCCCCCCn1cc(CCC[NH2+][C@H]2[C@H](O)[C@@H](O)[C@H](O)[C@@H](O)[C@@H]2O)nn1
REMARK SMILES IDX 9 1 10 2 11 3 27 4 28 5 8 6 7 7 6 8 5 9 4 10 3 11 2 12 1 13
REMARK SMILES IDX 12 14 13 15 14 16 15 17 16 20 17 21 25 22 19 23 23 24 21 25
REMARK SMILES IDX 18 26 26 28 20 30 24 32 22 34
REMARK H PARENT 15 18 15 19 18 27 26 29 20 31 24 33 22 35
ROOT
ATOM      1  N   UNL     1       2.296  -0.935  -1.057  1.00  0.00    -0.252 N 
ATOM      2  C   UNL     1       1.594  -1.573  -0.077  1.00  0.00    +0.134 A 
ATOM      3  C   UNL     1       0.368  -0.946  -0.084  1.00  0.00    +0.083 A 
ATOM      4  N   UNL     1       0.371   0.025  -1.053  1.00  0.00    -0.135 NA
ATOM      5  N   UNL     1       1.550   0.011  -1.654  1.00  0.00    -0.067 NA
ENDROOT
BRANCH   1   6
ATOM      6  C   UNL     1       3.659  -1.179  -1.482  1.00  0.00    +0.146 C 
BRANCH   6   7
ATOM      7  C   UNL     1       4.647  -0.247  -0.784  1.00  0.00    +0.024 C 
BRANCH   7   8
ATOM      8  C   UNL     1       6.089  -0.422  -1.266  1.00  0.00    +0.002 C 
BRANCH   8   9
ATOM      9  C   UNL     1       6.691  -1.817  -1.066  1.00  0.00    +0.000 C 
BRANCH   9  10
ATOM     10  C   UNL     1       6.659  -2.354   0.369  1.00  0.00    -0.000 C 
BRANCH  10  11
ATOM     11  C   UNL     1       7.426  -1.476   1.361  1.00  0.00    -0.000 C 
BRANCH  11  12
ATOM     12  C   UNL     1       7.547  -2.102   2.752  1.00  0.00    -0.003 C 
ATOM     13  C   UNL     1       6.212  -2.255   3.465  1.00  0.00    +0.004 C 
ENDBRANCH  11  12
ENDBRANCH  10  11
ENDBRANCH   9  10
ENDBRANCH   8   9
ENDBRANCH   7   8
ENDBRANCH   6   7
ENDBRANCH   1   6
BRANCH   3  14
ATOM     14  C   UNL     1      -0.829  -1.197   0.763  1.00  0.00    +0.066 C 
BRANCH  14  15
ATOM     15  C   UNL     1      -1.970  -0.203   0.514  1.00  0.00    +0.068 C 
BRANCH  15  16
ATOM     16  C   UNL     1      -2.649  -0.429  -0.834  1.00  0.00    +0.261 C 
BRANCH  16  17
ATOM     17  N   UNL     1      -3.387   0.793  -1.282  1.00  0.00    -0.339 N 
ATOM     18  H   UNL     1      -2.696   1.560  -1.386  1.00  0.00    +0.346 HD
ATOM     19  H   UNL     1      -3.731   0.627  -2.235  1.00  0.00    +0.346 HD
BRANCH  17  20
ATOM     20  C   UNL     1      -4.492   1.358  -0.410  1.00  0.00    +0.246 C 
ATOM     21  C   UNL     1      -4.845   2.742  -0.976  1.00  0.00    +0.206 C 
ATOM     22  C   UNL     1      -5.742   0.470  -0.364  1.00  0.00    +0.206 C 
ATOM     23  C   UNL     1      -5.911   3.428  -0.115  1.00  0.00    +0.180 C 
ATOM     24  C   UNL     1      -6.842   1.151   0.468  1.00  0.00    +0.180 C 
ATOM     25  C   UNL     1      -7.174   2.560  -0.041  1.00  0.00    +0.177 C 
BRANCH  21  26
ATOM     26  O   UNL     1      -3.643   3.520  -1.027  1.00  0.00    -0.384 OA
ATOM     27  H   UNL     1      -3.926   4.445  -1.203  1.00  0.00    +0.211 HD
ENDBRANCH  21  26
BRANCH  22  28
ATOM     28  O   UNL     1      -5.436  -0.795   0.231  1.00  0.00    -0.384 OA
ATOM     29  H   UNL     1      -6.304  -1.219   0.413  1.00  0.00    +0.211 HD
ENDBRANCH  22  28
BRANCH  23  30
ATOM     30  O   UNL     1      -6.211   4.688  -0.721  1.00  0.00    -0.387 OA
ATOM     31  H   UNL     1      -6.716   5.213  -0.069  1.00  0.00    +0.211 HD
ENDBRANCH  23  30
BRANCH  24  32
ATOM     32  O   UNL     1      -8.007   0.321   0.403  1.00  0.00    -0.387 OA
ATOM     33  H   UNL     1      -8.709   0.795   0.897  1.00  0.00    +0.211 HD
ENDBRANCH  24  32
BRANCH  25  34
ATOM     34  O   UNL     1      -8.111   3.151   0.864  1.00  0.00    -0.387 OA
ATOM     35  H   UNL     1      -8.629   3.815   0.369  1.00  0.00    +0.211 HD
ENDBRANCH  25  34
ENDBRANCH  17  20
ENDBRANCH  16  17
ENDBRANCH  15  16
ENDBRANCH  14  15
ENDBRANCH   3  14
TORSDOF 17
