REMARK SMILES C=C1[C@H]2C3=CC[C@@H]4[C@@]5(C)C[C@@H](O)[C@H](O)[C@@](C)(CO)[C@@H]5CC[C@@]4(C)[C@]3(C)CC[C@@]2(C(=O)O[C@@H]2O[C@H](CO)[C@@H](O)[C@H](O)[C@H]2O)CC[C@H]1C
REMARK SMILES IDX 29 1 30 2 28 3 1 4 2 5 3 6 45 7 4 8 44 9 5 10 24 11 27 12
REMARK SMILES IDX 43 13 6 14 22 15 26 16 7 17 21 18 8 19 20 20 10 21 19 22
REMARK SMILES IDX 11 23 15 24 13 25 46 26 25 27 23 28 9 29 16 30 12 31 17 33
REMARK SMILES IDX 18 34 14 36 31 38 32 39 33 40 41 41 34 42 39 43 37 44 42 45
REMARK SMILES IDX 35 47 36 48 40 50 38 52
REMARK H PARENT 12 32 18 35 14 37 42 46 36 49 40 51 38 53
ROOT
ATOM      1  C   UNL     1       3.191   0.517   0.514  1.00  0.00    +0.315 C 
ATOM      2  O   UNL     1       3.188   0.339   1.726  1.00  0.00    -0.251 OA
ENDROOT
BRANCH   1   3
ATOM      3  C   UNL     1       2.689   1.799  -0.188  1.00  0.00    +0.078 C 
ATOM      4  C   UNL     1       0.253   4.631   0.709  1.00  0.00    +0.009 C 
ATOM      5  C   UNL     1       1.413   3.971   0.523  1.00  0.00    -0.066 C 
ATOM      6  C   UNL     1       1.595   2.451   0.719  1.00  0.00    +0.058 C 
ATOM      7  C   UNL     1       2.671   4.783   0.248  1.00  0.00    +0.012 C 
ATOM      8  C   UNL     1       0.273   1.649   0.705  1.00  0.00    -0.059 C 
ATOM      9  C   UNL     1       3.938   3.954   0.480  1.00  0.00    +0.009 C 
ATOM     10  C   UNL     1      -0.353   1.425   1.880  1.00  0.00    -0.026 C 
ATOM     11  C   UNL     1      -0.281   1.096  -0.629  1.00  0.00    -0.005 C 
ATOM     12  C   UNL     1       2.099   1.485  -1.584  1.00  0.00    +0.020 C 
ATOM     13  C   UNL     1       3.955   2.687  -0.366  1.00  0.00    +0.020 C 
ATOM     14  C   UNL     1      -1.643   0.687   2.065  1.00  0.00    +0.032 C 
ATOM     15  C   UNL     1      -1.377  -0.092  -0.353  1.00  0.00    -0.020 C 
ATOM     16  C   UNL     1       0.884   0.559  -1.509  1.00  0.00    +0.013 C 
ATOM     17  C   UNL     1      -2.392   0.415   0.743  1.00  0.00    +0.006 C 
ATOM     18  C   UNL     1      -2.146  -0.463  -1.649  1.00  0.00    +0.008 C 
ATOM     19  C   UNL     1      -3.771  -0.372   0.922  1.00  0.00    -0.023 C 
ATOM     20  C   UNL     1      -3.378  -1.338  -1.422  1.00  0.00    +0.005 C 
ATOM     21  C   UNL     1      -4.746   0.536   1.759  1.00  0.00    +0.042 C 
ATOM     22  C   UNL     1      -4.384  -0.622  -0.498  1.00  0.00    +0.006 C 
ATOM     23  C   UNL     1      -6.187   0.632   1.234  1.00  0.00    +0.144 C 
ATOM     24  C   UNL     1      -5.844  -1.236  -0.529  1.00  0.00    +0.022 C 
ATOM     25  C   UNL     1      -6.715  -0.691   0.657  1.00  0.00    +0.151 C 
ATOM     26  C   UNL     1       2.652   5.407  -1.153  1.00  0.00    +0.012 C 
ATOM     27  C   UNL     1      -0.914   2.285  -1.410  1.00  0.00    +0.017 C 
ATOM     28  C   UNL     1      -0.638  -1.379   0.131  1.00  0.00    +0.012 C 
ATOM     29  C   UNL     1      -3.599  -1.691   1.716  1.00  0.00    +0.012 C 
ATOM     30  C   UNL     1      -5.838  -2.783  -0.557  1.00  0.00    +0.017 C 
BRANCH  23  31
ATOM     31  O   UNL     1      -6.272   1.669   0.252  1.00  0.00    -0.390 OA
ATOM     32  H   UNL     1      -6.045   2.504   0.699  1.00  0.00    +0.211 HD
ENDBRANCH  23  31
BRANCH  24  33
ATOM     33  C   UNL     1      -6.517  -0.762  -1.859  1.00  0.00    +0.165 C 
BRANCH  33  34
ATOM     34  O   UNL     1      -7.823  -1.318  -2.003  1.00  0.00    -0.396 OA
ATOM     35  H   UNL     1      -8.199  -0.941  -2.817  1.00  0.00    +0.210 HD
ENDBRANCH  33  34
ENDBRANCH  24  33
BRANCH  25  36
ATOM     36  O   UNL     1      -6.836  -1.626   1.734  1.00  0.00    -0.390 OA
ATOM     37  H   UNL     1      -7.443  -2.323   1.429  1.00  0.00    +0.211 HD
ENDBRANCH  25  36
ENDBRANCH   1   3
BRANCH   1  38
ATOM     38  O   UNL     1       3.722  -0.358  -0.382  1.00  0.00    -0.432 OA
BRANCH  38  39
ATOM     39  C   UNL     1       4.215  -1.581   0.180  1.00  0.00    +0.342 C 
ATOM     40  O   UNL     1       5.587  -1.396   0.554  1.00  0.00    -0.332 OA
ATOM     41  C   UNL     1       4.095  -2.676  -0.898  1.00  0.00    +0.214 C 
ATOM     42  C   UNL     1       6.158  -2.582   1.128  1.00  0.00    +0.179 C 
ATOM     43  C   UNL     1       4.761  -3.962  -0.408  1.00  0.00    +0.180 C 
ATOM     44  C   UNL     1       6.191  -3.695   0.068  1.00  0.00    +0.177 C 
BRANCH  41  45
ATOM     45  O   UNL     1       2.723  -2.958  -1.213  1.00  0.00    -0.384 OA
ATOM     46  H   UNL     1       2.752  -3.751  -1.786  1.00  0.00    +0.211 HD
ENDBRANCH  41  45
BRANCH  42  47
ATOM     47  C   UNL     1       7.557  -2.221   1.636  1.00  0.00    +0.191 C 
BRANCH  47  48
ATOM     48  O   UNL     1       8.395  -1.828   0.551  1.00  0.00    -0.394 OA
ATOM     49  H   UNL     1       7.963  -1.046   0.155  1.00  0.00    +0.210 HD
ENDBRANCH  47  48
ENDBRANCH  42  47
BRANCH  43  50
ATOM     50  O   UNL     1       4.766  -4.924  -1.476  1.00  0.00    -0.387 OA
ATOM     51  H   UNL     1       5.318  -5.663  -1.149  1.00  0.00    +0.211 HD
ENDBRANCH  43  50
BRANCH  44  52
ATOM     52  O   UNL     1       6.726  -4.919   0.580  1.00  0.00    -0.387 OA
ATOM     53  H   UNL     1       7.697  -4.813   0.602  1.00  0.00    +0.211 HD
ENDBRANCH  44  52
ENDBRANCH  38  39
ENDBRANCH   1  38
TORSDOF 12
