REMARK SMILES O=S(=O)(Cc1ccc(C(F)(F)F)cc1)NCCCCc1c[n-]cn1
REMARK SMILES IDX 15 1 2 3 1 4 3 5 4 6 5 7 6 8 14 9 7 10 13 11 8 12 9 13 10 14
REMARK SMILES IDX 11 15 12 16 16 17 17 18 18 19 19 20 20 21 21 22 24 23 22 24
REMARK SMILES IDX 23 25
REMARK H PARENT 15 2
ROOT
ATOM      1  N   UNL     1      -0.668   1.879   0.279  1.00  0.00    -0.215 NA
ATOM      2  H   UNL     1      -1.401   1.278   0.748  1.00  0.00    +0.140 HD
ENDROOT
BRANCH   1   3
ATOM      3  S   UNL     1       0.847   1.172   0.514  1.00  0.00    +0.215 S 
ATOM      4  O   UNL     1       1.770   1.822  -0.401  1.00  0.00    -0.212 OA
ATOM      5  O   UNL     1       1.112   1.183   1.940  1.00  0.00    -0.212 OA
BRANCH   3   6
ATOM      6  C   UNL     1       0.585  -0.528  -0.020  1.00  0.00    +0.189 C 
BRANCH   6   7
ATOM      7  C   UNL     1       1.912  -1.253  -0.030  1.00  0.00    -0.032 A 
ATOM      8  C   UNL     1       2.397  -1.859   1.137  1.00  0.00    +0.005 A 
ATOM      9  C   UNL     1       2.681  -1.319  -1.199  1.00  0.00    +0.005 A 
ATOM     10  C   UNL     1       3.625  -2.525   1.133  1.00  0.00    +0.013 A 
ATOM     11  C   UNL     1       3.909  -1.984  -1.203  1.00  0.00    +0.013 A 
ATOM     12  C   UNL     1       4.390  -2.602  -0.039  1.00  0.00    +0.056 A 
BRANCH  12  13
ATOM     13  C   UNL     1       5.726  -3.298  -0.038  1.00  0.00    +0.416 C 
ATOM     14  F   UNL     1       6.043  -3.855  -1.243  1.00  0.00    -0.166 F 
ATOM     15  F   UNL     1       6.756  -2.459   0.262  1.00  0.00    -0.166 F 
ATOM     16  F   UNL     1       5.804  -4.318   0.865  1.00  0.00    -0.166 F 
ENDBRANCH  12  13
ENDBRANCH   6   7
ENDBRANCH   3   6
ENDBRANCH   1   3
BRANCH   1  17
ATOM     17  C   UNL     1      -1.076   2.154  -1.113  1.00  0.00    +0.098 C 
BRANCH  17  18
ATOM     18  C   UNL     1      -2.140   3.252  -1.134  1.00  0.00    +0.017 C 
BRANCH  18  19
ATOM     19  C   UNL     1      -3.594   2.773  -1.046  1.00  0.00    +0.006 C 
BRANCH  19  20
ATOM     20  C   UNL     1      -3.990   2.119   0.276  1.00  0.00    +0.030 C 
BRANCH  20  21
ATOM     21  C   UNL     1      -3.739   0.657   0.297  1.00  0.00    -0.069 A 
ATOM     22  C   UNL     1      -4.463  -0.377  -0.267  1.00  0.00    -0.024 A 
ATOM     23  N   UNL     1      -2.668   0.110   0.931  1.00  0.00    -0.447 NA
ATOM     24  N   UNL     1      -3.855  -1.536   0.053  1.00  0.00    -0.450 NA
ATOM     25  C   UNL     1      -2.828  -1.233   0.865  1.00  0.00    -0.045 A 
ENDBRANCH  20  21
ENDBRANCH  19  20
ENDBRANCH  18  19
ENDBRANCH  17  18
ENDBRANCH   1  17
TORSDOF 9
