REMARK SMILES O=C([O-])Cc1sc(N(c2ccccc2)c2ccccc2)nc1-c1ccc(F)cc1
REMARK SMILES IDX 5 1 6 2 7 3 21 4 22 5 4 6 2 7 1 8 3 9 23 10 24 11 29 12
REMARK SMILES IDX 25 13 28 14 26 15 27 16 8 17 9 18 10 19 14 20 11 21 13 22
REMARK SMILES IDX 12 23 15 24 16 25 20 26 17 27 19 28 18 29
REMARK H PARENT
ROOT
ATOM      1  C   UNL     1       1.871  -1.238   0.993  1.00  0.00    +0.040 A 
ATOM      2  S   UNL     1       0.358  -1.122   1.798  1.00  0.00    -0.100 S 
ATOM      3  C   UNL     1      -0.319  -0.216   0.475  1.00  0.00    +0.195 A 
ATOM      4  N   UNL     1       0.522  -0.089  -0.535  1.00  0.00    -0.219 NA
ATOM      5  C   UNL     1       1.774  -0.609  -0.236  1.00  0.00    +0.087 A 
ENDROOT
BRANCH   1   6
ATOM      6  C   UNL     1       2.995  -1.999   1.641  1.00  0.00    +0.101 C 
BRANCH   6   7
ATOM      7  C   UNL     1       3.616  -1.207   2.800  1.00  0.00    +0.047 C 
ATOM      8  O   UNL     1       4.381  -0.257   2.466  1.00  0.00    -0.550 OA
ATOM      9  O   UNL     1       3.323  -1.625   3.957  1.00  0.00    -0.550 OA
ENDBRANCH   6   7
ENDBRANCH   1   6
BRANCH   5  10
ATOM     10  C   UNL     1       2.830  -0.527  -1.236  1.00  0.00    +0.002 A 
ATOM     11  C   UNL     1       4.116  -0.072  -0.919  1.00  0.00    +0.013 A 
ATOM     12  C   UNL     1       2.537  -0.868  -2.567  1.00  0.00    +0.013 A 
ATOM     13  C   UNL     1       5.102   0.010  -1.905  1.00  0.00    +0.040 A 
ATOM     14  C   UNL     1       3.522  -0.784  -3.554  1.00  0.00    +0.040 A 
ATOM     15  C   UNL     1       4.797  -0.349  -3.212  1.00  0.00    +0.123 A 
ATOM     16  F   UNL     1       5.741  -0.267  -4.159  1.00  0.00    -0.207 F 
ENDBRANCH   5  10
BRANCH   3  17
ATOM     17  N   UNL     1      -1.629   0.247   0.473  1.00  0.00    -0.286 N 
BRANCH  17  18
ATOM     18  C   UNL     1      -2.234   0.696   1.699  1.00  0.00    +0.048 A 
ATOM     19  C   UNL     1      -1.546   1.537   2.592  1.00  0.00    +0.027 A 
ATOM     20  C   UNL     1      -3.546   0.312   2.030  1.00  0.00    +0.027 A 
ATOM     21  C   UNL     1      -2.146   1.969   3.778  1.00  0.00    +0.002 A 
ATOM     22  C   UNL     1      -4.147   0.746   3.215  1.00  0.00    +0.002 A 
ATOM     23  C   UNL     1      -3.445   1.573   4.088  1.00  0.00    +0.000 A 
ENDBRANCH  17  18
BRANCH  17  24
ATOM     24  C   UNL     1      -2.339   0.324  -0.780  1.00  0.00    +0.048 A 
ATOM     25  C   UNL     1      -3.263   1.358  -1.026  1.00  0.00    +0.027 A 
ATOM     26  C   UNL     1      -2.152  -0.632  -1.795  1.00  0.00    +0.027 A 
ATOM     27  C   UNL     1      -3.969   1.432  -2.231  1.00  0.00    +0.002 A 
ATOM     28  C   UNL     1      -2.857  -0.560  -3.001  1.00  0.00    +0.002 A 
ATOM     29  C   UNL     1      -3.766   0.471  -3.218  1.00  0.00    +0.000 A 
ENDBRANCH  17  24
ENDBRANCH   3  17
TORSDOF 6
