REMARK SMILES COc1cnc(Nc2ccc(N3CCOCC3)cc2)nc1-c1ccc(C(=O)NCC#N)cc1
REMARK SMILES IDX 3 1 4 2 5 3 6 4 20 5 21 6 2 7 1 8 22 9 23 10 33 11 24 12
REMARK SMILES IDX 32 13 25 14 26 15 27 16 28 17 29 19 30 20 31 21 7 22 8 24
REMARK SMILES IDX 9 25 19 26 10 27 18 28 11 29 12 30 13 31 17 32 14 33 16 34
REMARK SMILES IDX 15 35
REMARK H PARENT 28 18 7 23
ROOT
ATOM      1  C   UNL     1       1.970  -2.704   0.426  1.00  0.00    +0.163 A 
ATOM      2  C   UNL     1       0.616  -2.959   0.434  1.00  0.00    +0.163 A 
ATOM      3  N   UNL     1      -0.338  -2.017   0.279  1.00  0.00    -0.217 NA
ATOM      4  C   UNL     1       0.064  -0.755   0.103  1.00  0.00    +0.227 A 
ATOM      5  N   UNL     1       1.357  -0.400   0.075  1.00  0.00    -0.209 NA
ATOM      6  C   UNL     1       2.299  -1.366   0.246  1.00  0.00    +0.118 A 
ENDROOT
BRANCH   1   7
ATOM      7  O   UNL     1       2.962  -3.628   0.555  1.00  0.00    -0.493 OA
ATOM      8  C   UNL     1       2.574  -4.989   0.699  1.00  0.00    +0.278 C 
ENDBRANCH   1   7
BRANCH   6   9
ATOM      9  C   UNL     1       3.686  -0.853   0.209  1.00  0.00    +0.004 A 
ATOM     10  C   UNL     1       4.647  -1.227   1.164  1.00  0.00    +0.011 A 
ATOM     11  C   UNL     1       4.083   0.055  -0.792  1.00  0.00    +0.011 A 
ATOM     12  C   UNL     1       5.952  -0.723   1.117  1.00  0.00    +0.014 A 
ATOM     13  C   UNL     1       5.386   0.565  -0.845  1.00  0.00    +0.014 A 
ATOM     14  C   UNL     1       6.323   0.183   0.119  1.00  0.00    +0.039 A 
BRANCH  14  15
ATOM     15  C   UNL     1       7.722   0.691   0.112  1.00  0.00    +0.252 C 
ATOM     16  O   UNL     1       8.629   0.018   0.589  1.00  0.00    -0.269 OA
ATOM     17  N   UNL     1       7.923   1.943  -0.422  1.00  0.00    -0.339 N 
ATOM     18  H   UNL     1       7.133   2.516  -0.686  1.00  0.00    +0.164 HD
BRANCH  17  19
ATOM     19  C   UNL     1       9.243   2.548  -0.434  1.00  0.00    +0.237 C 
ATOM     20  C   UNL     1       9.427   3.484   0.688  1.00  0.00    +0.084 C 
ATOM     21  N   UNL     1       9.558   4.252   1.550  1.00  0.00    -0.196 NA
ENDBRANCH  17  19
ENDBRANCH  14  15
ENDBRANCH   6   9
BRANCH   4  22
ATOM     22  N   UNL     1      -0.833   0.295  -0.064  1.00  0.00    -0.324 N 
ATOM     23  H   UNL     1      -0.315   1.155  -0.158  1.00  0.00    +0.170 HD
BRANCH  22  24
ATOM     24  C   UNL     1      -2.226   0.387  -0.113  1.00  0.00    +0.041 A 
ATOM     25  C   UNL     1      -3.088  -0.702  -0.009  1.00  0.00    +0.028 A 
ATOM     26  C   UNL     1      -2.812   1.647  -0.280  1.00  0.00    +0.028 A 
ATOM     27  C   UNL     1      -4.483  -0.540  -0.067  1.00  0.00    +0.028 A 
ATOM     28  C   UNL     1      -4.205   1.806  -0.335  1.00  0.00    +0.028 A 
ATOM     29  C   UNL     1      -5.078   0.717  -0.221  1.00  0.00    +0.037 A 
BRANCH  29  30
ATOM     30  N   UNL     1      -6.455   0.898  -0.286  1.00  0.00    -0.367 N 
ATOM     31  C   UNL     1      -7.342  -0.240  -0.583  1.00  0.00    +0.145 C 
ATOM     32  C   UNL     1      -7.064   1.923   0.585  1.00  0.00    +0.145 C 
ATOM     33  C   UNL     1      -8.719   0.259  -1.048  1.00  0.00    +0.181 C 
ATOM     34  C   UNL     1      -8.458   2.309   0.067  1.00  0.00    +0.181 C 
ATOM     35  O   UNL     1      -9.305   1.162  -0.097  1.00  0.00    -0.378 OA
ENDBRANCH  29  30
ENDBRANCH  22  24
ENDBRANCH   4  22
TORSDOF 7
