REMARK SMILES C=CCOc1c(F)cc(/C=C(\C)C(=O)N[C@@H]2[C@H](O)[C@@H](O)[C@H]3OCO[C@H]3[C@@H]2O)c(F)c1[O-]
REMARK SMILES IDX 10 1 11 2 12 3 9 4 5 5 6 6 30 7 8 8 28 9 7 10 31 11 29 12
REMARK SMILES IDX 4 13 3 14 2 15 1 16 13 17 14 18 15 19 16 21 17 22 26 23
REMARK SMILES IDX 19 24 25 25 21 26 24 27 22 28 23 29 18 30 27 32 20 34
REMARK H PARENT 15 20 18 31 27 33 20 35
ROOT
ATOM      1  C   UNL     1       0.862  -0.129   0.536  1.00  0.00    +0.020 C 
ATOM      2  C   UNL     1       0.154  -1.044   1.229  1.00  0.00    +0.014 C 
ATOM      3  C   UNL     1       0.710  -2.139   2.089  1.00  0.00    +0.050 C 
ENDROOT
BRANCH   1   4
ATOM      4  C   UNL     1       2.326  -0.069   0.403  1.00  0.00    +0.013 A 
ATOM      5  C   UNL     1       5.107   0.166   0.101  1.00  0.00    +0.150 A 
ATOM      6  C   UNL     1       4.426  -1.027  -0.216  1.00  0.00    +0.165 A 
ATOM      7  C   UNL     1       4.410   1.330   0.544  1.00  0.00    -0.025 A 
ATOM      8  C   UNL     1       3.052  -1.151  -0.074  1.00  0.00    +0.054 A 
ATOM      9  C   UNL     1       3.003   1.137   0.680  1.00  0.00    +0.126 A 
ATOM     10  F   UNL     1       5.107  -2.096  -0.664  1.00  0.00    -0.203 F 
ATOM     11  O   UNL     1       4.948   2.468   0.785  1.00  0.00    -0.868 OA
ATOM     12  F   UNL     1       2.242   2.174   1.095  1.00  0.00    -0.207 F 
BRANCH   5  13
ATOM     13  O   UNL     1       6.469   0.061  -0.121  1.00  0.00    -0.487 OA
BRANCH  13  14
ATOM     14  C   UNL     1       7.307   0.859   0.711  1.00  0.00    +0.257 C 
BRANCH  14  15
ATOM     15  C   UNL     1       8.677   0.228   0.672  1.00  0.00    +0.006 C 
ATOM     16  C   UNL     1       9.370  -0.166   1.749  1.00  0.00    +0.007 C 
ENDBRANCH  14  15
ENDBRANCH  13  14
ENDBRANCH   5  13
ENDBRANCH   1   4
BRANCH   2  17
ATOM     17  C   UNL     1      -1.337  -0.938   1.246  1.00  0.00    +0.247 C 
ATOM     18  O   UNL     1      -1.992  -1.185   2.252  1.00  0.00    -0.270 OA
ATOM     19  N   UNL     1      -1.910  -0.605   0.047  1.00  0.00    -0.344 N 
ATOM     20  H   UNL     1      -1.339  -0.585  -0.795  1.00  0.00    +0.164 HD
BRANCH  19  21
ATOM     21  C   UNL     1      -3.359  -0.593  -0.177  1.00  0.00    +0.145 C 
ATOM     22  C   UNL     1      -3.677  -0.445  -1.689  1.00  0.00    +0.171 C 
ATOM     23  C   UNL     1      -4.084   0.471   0.691  1.00  0.00    +0.171 C 
ATOM     24  C   UNL     1      -4.162   0.961  -2.060  1.00  0.00    +0.177 C 
ATOM     25  C   UNL     1      -5.466   0.803   0.138  1.00  0.00    +0.183 C 
ATOM     26  C   UNL     1      -5.423   1.358  -1.278  1.00  0.00    +0.184 C 
ATOM     27  O   UNL     1      -6.278  -0.370   0.034  1.00  0.00    -0.347 OA
ATOM     28  O   UNL     1      -6.584   0.811  -1.942  1.00  0.00    -0.347 OA
ATOM     29  C   UNL     1      -7.201  -0.065  -1.003  1.00  0.00    +0.324 C 
BRANCH  22  30
ATOM     30  O   UNL     1      -2.524  -0.776  -2.488  1.00  0.00    -0.388 OA
ATOM     31  H   UNL     1      -2.711  -0.395  -3.372  1.00  0.00    +0.211 HD
ENDBRANCH  22  30
BRANCH  23  32
ATOM     32  O   UNL     1      -3.332   1.692   0.738  1.00  0.00    -0.388 OA
ATOM     33  H   UNL     1      -2.449   1.445   1.081  1.00  0.00    +0.211 HD
ENDBRANCH  23  32
BRANCH  24  34
ATOM     34  O   UNL     1      -4.418   0.995  -3.478  1.00  0.00    -0.388 OA
ATOM     35  H   UNL     1      -5.386   0.881  -3.572  1.00  0.00    +0.211 HD
ENDBRANCH  24  34
ENDBRANCH  19  21
ENDBRANCH   2  17
TORSDOF 9
