REMARK SMILES Cc1cnc(Nc2cc(N3CCOCC3)nc([NH2+][C@@H](C)c3ccc(F)cn3)n2)s1
REMARK SMILES IDX 7 1 8 2 9 3 16 4 17 5 28 6 6 7 5 9 2 10 3 11 29 12 4 13 1 14
REMARK SMILES IDX 10 15 11 16 15 17 12 18 14 19 13 20 18 21 19 24 20 25 21 26
REMARK SMILES IDX 22 27 27 28 23 29 26 30 24 31 25 32
REMARK H PARENT 6 8 18 22 18 23
ROOT
ATOM      1  C   UNL     1      -1.890   0.222  -0.343  1.00  0.00    +0.143 A 
ATOM      2  C   UNL     1      -1.892   1.604  -0.446  1.00  0.00    +0.094 A 
ATOM      3  C   UNL     1      -0.844   2.316   0.119  1.00  0.00    +0.140 A 
ATOM      4  N   UNL     1       0.169   1.659   0.712  1.00  0.00    -0.160 NA
ATOM      5  C   UNL     1       0.081   0.338   0.754  1.00  0.00    +0.330 A 
ATOM      6  N   UNL     1      -0.900  -0.410   0.295  1.00  0.00    -0.160 NA
ENDROOT
BRANCH   1   7
ATOM      7  N   UNL     1      -2.897  -0.512  -0.982  1.00  0.00    -0.316 N 
ATOM      8  H   UNL     1      -3.796  -0.058  -1.067  1.00  0.00    +0.170 HD
BRANCH   7   9
ATOM      9  C   UNL     1      -2.823  -1.820  -1.323  1.00  0.00    +0.188 A 
ATOM     10  C   UNL     1      -3.374  -4.064  -2.102  1.00  0.00    +0.023 A 
ATOM     11  C   UNL     1      -2.062  -3.861  -1.733  1.00  0.00    +0.128 A 
ATOM     12  S   UNL     1      -4.250  -2.610  -1.898  1.00  0.00    -0.102 S 
ATOM     13  N   UNL     1      -1.752  -2.587  -1.296  1.00  0.00    -0.228 NA
ATOM     14  C   UNL     1      -4.035  -5.293  -2.612  1.00  0.00    +0.058 C 
ENDBRANCH   7   9
ENDBRANCH   1   7
BRANCH   3  15
ATOM     15  N   UNL     1      -0.780   3.700   0.043  1.00  0.00    -0.352 N 
ATOM     16  C   UNL     1      -2.007   4.506   0.221  1.00  0.00    +0.146 C 
ATOM     17  C   UNL     1       0.448   4.353   0.545  1.00  0.00    +0.146 C 
ATOM     18  C   UNL     1      -1.786   5.957  -0.235  1.00  0.00    +0.181 C 
ATOM     19  C   UNL     1       0.535   5.808   0.065  1.00  0.00    +0.181 C 
ATOM     20  O   UNL     1      -0.647   6.540   0.409  1.00  0.00    -0.378 OA
ENDBRANCH   3  15
BRANCH   5  21
ATOM     21  N   UNL     1       1.148  -0.340   1.371  1.00  0.00    -0.273 N 
ATOM     22  H   UNL     1       0.740  -0.959   2.074  1.00  0.00    +0.355 HD
ATOM     23  H   UNL     1       1.714   0.344   1.871  1.00  0.00    +0.355 HD
BRANCH  21  24
ATOM     24  C   UNL     1       1.955  -1.165   0.430  1.00  0.00    +0.236 C 
ATOM     25  C   UNL     1       2.851  -0.253  -0.408  1.00  0.00    +0.083 C 
BRANCH  24  26
ATOM     26  C   UNL     1       2.788  -2.155   1.236  1.00  0.00    +0.098 A 
ATOM     27  C   UNL     1       3.468  -3.207   0.619  1.00  0.00    +0.033 A 
ATOM     28  N   UNL     1       2.807  -1.955   2.587  1.00  0.00    -0.252 NA
ATOM     29  C   UNL     1       4.207  -4.084   1.412  1.00  0.00    +0.043 A 
ATOM     30  C   UNL     1       3.540  -2.829   3.327  1.00  0.00    +0.150 A 
ATOM     31  C   UNL     1       4.243  -3.888   2.784  1.00  0.00    +0.141 A 
ATOM     32  F   UNL     1       4.945  -4.714   3.567  1.00  0.00    -0.205 F 
ENDBRANCH  24  26
ENDBRANCH  21  24
ENDBRANCH   5  21
TORSDOF 6
