REMARK SMILES CC[NH+]1CCN(c2cc(C(=O)Nc3ccc(C)c(Nc4nc5ccccc5n4-c4cc(N)ncn4)c3)cc(C(F)(F)F)c2)CC1
REMARK SMILES IDX 13 1 14 2 15 3 16 4 17 5 18 6 36 7 12 8 10 9 11 10 9 12 7 13
REMARK SMILES IDX 8 14 43 15 38 16 37 17 6 18 3 19 4 20 45 21 5 22 44 23 2 25
REMARK SMILES IDX 1 26 39 27 40 28 41 29 42 30 19 31 20 33 21 34 28 35 22 36
REMARK SMILES IDX 27 37 23 38 26 39 24 40 25 41 29 42 30 43 35 44 31 45 34 46
REMARK SMILES IDX 33 47 32 48
REMARK H PARENT 12 11 3 24 19 32 32 49 32 50
ROOT
ATOM      1  C   UNL     1      -1.123  -0.433  -1.933  1.00  0.00    +0.043 A 
ATOM      2  C   UNL     1      -1.083  -1.032  -3.185  1.00  0.00    +0.026 A 
ATOM      3  C   UNL     1      -2.249  -1.556  -3.744  1.00  0.00    +0.008 A 
ATOM      4  C   UNL     1      -3.477  -1.488  -3.062  1.00  0.00    -0.027 A 
ATOM      5  C   UNL     1      -4.692  -2.081  -3.726  1.00  0.00    +0.046 C 
ATOM      6  C   UNL     1      -3.542  -0.871  -1.792  1.00  0.00    +0.046 A 
ATOM      7  C   UNL     1      -2.349  -0.359  -1.254  1.00  0.00    +0.052 A 
ENDROOT
BRANCH   1   8
ATOM      8  N   UNL     1       0.001   0.126  -1.284  1.00  0.00    -0.322 N 
ATOM      9  C   UNL     1       1.307   0.134  -1.728  1.00  0.00    +0.255 C 
ATOM     10  O   UNL     1       1.752  -0.412  -2.732  1.00  0.00    -0.269 OA
ATOM     11  H   UNL     1      -0.197   0.526  -0.376  1.00  0.00    +0.170 HD
BRANCH   9  12
ATOM     12  C   UNL     1       2.277   0.853  -0.851  1.00  0.00    +0.042 A 
ATOM     13  C   UNL     1       4.595   1.004  -0.053  1.00  0.00    +0.038 A 
ATOM     14  C   UNL     1       3.604   0.390  -0.830  1.00  0.00    +0.039 A 
ATOM     15  C   UNL     1       4.205   2.118   0.706  1.00  0.00    +0.039 A 
ATOM     16  C   UNL     1       2.884   2.608   0.701  1.00  0.00    +0.058 A 
ATOM     17  C   UNL     1       1.922   1.973  -0.096  1.00  0.00    +0.027 A 
BRANCH  13  18
ATOM     18  N   UNL     1       5.918   0.563  -0.043  1.00  0.00    -0.360 N 
ATOM     19  N   UNL     1       8.555  -0.613   0.063  1.00  0.00    -0.332 N 
ATOM     20  C   UNL     1       8.071   0.296   1.189  1.00  0.00    +0.283 C 
ATOM     21  C   UNL     1       7.964  -0.160  -1.269  1.00  0.00    +0.283 C 
ATOM     22  C   UNL     1       6.529   0.279   1.270  1.00  0.00    +0.178 C 
ATOM     23  C   UNL     1       6.424  -0.193  -1.205  1.00  0.00    +0.178 C 
ATOM     24  H   UNL     1       8.136  -1.534   0.250  1.00  0.00    +0.348 HD
BRANCH  19  25
ATOM     25  C   UNL     1      10.043  -0.845   0.040  1.00  0.00    +0.258 C 
ATOM     26  C   UNL     1      10.840   0.417  -0.229  1.00  0.00    +0.071 C 
ENDBRANCH  19  25
ENDBRANCH  13  18
BRANCH  16  27
ATOM     27  C   UNL     1       2.531   3.840   1.501  1.00  0.00    +0.416 C 
ATOM     28  F   UNL     1       2.776   4.987   0.815  1.00  0.00    -0.166 F 
ATOM     29  F   UNL     1       3.245   3.931   2.658  1.00  0.00    -0.166 F 
ATOM     30  F   UNL     1       1.222   3.881   1.865  1.00  0.00    -0.166 F 
ENDBRANCH  16  27
ENDBRANCH   9  12
ENDBRANCH   1   8
BRANCH   6  31
ATOM     31  N   UNL     1      -4.774  -0.806  -1.104  1.00  0.00    -0.325 N 
ATOM     32  H   UNL     1      -5.571  -1.143  -1.644  1.00  0.00    +0.170 HD
BRANCH  31  33
ATOM     33  C   UNL     1      -5.061  -0.320   0.133  1.00  0.00    +0.214 A 
ATOM     34  N   UNL     1      -4.235   0.188   1.023  1.00  0.00    -0.212 NA
ATOM     35  N   UNL     1      -6.372  -0.370   0.643  1.00  0.00    -0.262 N 
ATOM     36  C   UNL     1      -5.002   0.592   2.074  1.00  0.00    +0.091 A 
ATOM     37  C   UNL     1      -6.350   0.313   1.860  1.00  0.00    +0.076 A 
ATOM     38  C   UNL     1      -4.594   1.246   3.248  1.00  0.00    +0.031 A 
ATOM     39  C   UNL     1      -7.332   0.758   2.765  1.00  0.00    +0.029 A 
ATOM     40  C   UNL     1      -5.559   1.646   4.175  1.00  0.00    +0.002 A 
ATOM     41  C   UNL     1      -6.909   1.416   3.927  1.00  0.00    +0.002 A 
BRANCH  35  42
ATOM     42  C   UNL     1      -7.485  -1.013   0.001  1.00  0.00    +0.145 A 
ATOM     43  C   UNL     1      -8.587  -1.411   0.733  1.00  0.00    +0.094 A 
ATOM     44  N   UNL     1      -7.388  -1.262  -1.329  1.00  0.00    -0.218 NA
ATOM     45  C   UNL     1      -9.613  -2.018   0.040  1.00  0.00    +0.128 A 
ATOM     46  C   UNL     1      -8.443  -1.862  -1.899  1.00  0.00    +0.226 A 
ATOM     47  N   UNL     1      -9.557  -2.252  -1.273  1.00  0.00    -0.220 NA
BRANCH  45  48
ATOM     48  N   UNL     1     -10.728  -2.490   0.700  1.00  0.00    -0.384 N 
ATOM     49  H   UNL     1     -11.394  -2.947   0.087  1.00  0.00    +0.158 HD
ATOM     50  H   UNL     1     -11.106  -1.967   1.475  1.00  0.00    +0.158 HD
ENDBRANCH  45  48
ENDBRANCH  35  42
ENDBRANCH  31  33
ENDBRANCH   6  31
TORSDOF 9
