REMARK SMILES C/C=C(\C)C(=O)O[C@@H]1[C@@H]2OC[C@]3(C)[C@H](OC(C)=O)C[C@H](O)[C@@](C)([C@@H]23)[C@H]2C[C@H](OCC)O[C@H]3C[C@@H](C4=CCOC4=O)C(C)=C3[C@]12C
REMARK SMILES IDX 32 1 33 2 34 3 41 4 42 5 43 6 44 7 8 8 9 9 10 10 24 11 25 12
REMARK SMILES IDX 11 13 22 14 12 15 20 16 14 17 19 18 45 19 23 20 13 21 7 22
REMARK SMILES IDX 5 23 6 24 3 25 2 26 1 27 4 28 26 29 21 31 15 33 16 34 18 35
REMARK SMILES IDX 17 36 31 37 27 38 28 40 29 41 30 42 35 43 36 44 39 45 37 46
REMARK SMILES IDX 38 47 40 48
REMARK H PARENT 21 32
REMARK Flexibility Score:   35.900
ROOT
ATOM      1  C   UNL     1      -1.913   0.281  -0.820  1.00  0.00    +0.149 C 
ATOM      2  C   UNL     1      -3.099   1.239  -0.941  1.00  0.00    +0.050 C 
ATOM      3  C   UNL     1      -3.854   1.133   0.387  1.00  0.00    +0.055 C 
ATOM      4  C   UNL     1      -2.767   0.657   1.335  1.00  0.00    -0.063 C 
ATOM      5  C   UNL     1      -2.981   0.893   2.796  1.00  0.00    +0.040 C 
ATOM      6  C   UNL     1      -1.705   0.142   0.676  1.00  0.00    -0.032 C 
ENDROOT
BRANCH   6   7
ATOM      7  C   UNL     1      -0.374  -0.452   1.203  1.00  0.00    +0.035 C 
ATOM      8  C   UNL     1       0.500   0.739   1.773  1.00  0.00    +0.216 C 
ATOM      9  C   UNL     1       1.938   0.289   2.078  1.00  0.00    +0.164 C 
ATOM     10  O   UNL     1       2.838   1.362   2.441  1.00  0.00    -0.373 OA
ATOM     11  C   UNL     1       2.570  -0.305   0.847  1.00  0.00    +0.043 C 
ATOM     12  C   UNL     1       0.407  -1.198   0.011  1.00  0.00    +0.017 C 
ATOM     13  C   UNL     1       4.082   1.192   1.697  1.00  0.00    +0.171 C 
ATOM     14  C   UNL     1       1.941  -1.585   0.295  1.00  0.00    +0.004 C 
ATOM     15  C   UNL     1       4.062  -0.241   1.130  1.00  0.00    +0.034 C 
ATOM     16  C   UNL     1       2.747  -1.904  -1.024  1.00  0.00    +0.124 C 
ATOM     17  C   UNL     1       4.811  -0.499  -0.196  1.00  0.00    +0.187 C 
ATOM     18  C   UNL     1       4.291  -1.809  -0.862  1.00  0.00    +0.078 C 
ATOM     19  C   UNL     1      -0.682  -1.458   2.339  1.00  0.00    +0.020 C 
ATOM     20  C   UNL     1       2.091  -2.798   1.241  1.00  0.00    +0.015 C 
ATOM     21  C   UNL     1       4.607  -1.180   2.226  1.00  0.00    +0.018 C 
BRANCH   8  22
ATOM     22  O   UNL     1       0.575   1.782   0.767  1.00  0.00    -0.455 OA
BRANCH  22  23
ATOM     23  C   UNL     1       0.090   3.003   1.093  1.00  0.00    +0.333 C 
ATOM     24  O   UNL     1      -0.453   3.309   2.143  1.00  0.00    -0.247 OA
BRANCH  23  25
ATOM     25  C   UNL     1       0.281   3.930  -0.068  1.00  0.00    +0.030 C 
ATOM     26  C   UNL     1      -0.444   5.067  -0.055  1.00  0.00    -0.020 C 
ATOM     27  C   UNL     1      -0.464   6.150  -1.085  1.00  0.00    +0.036 C 
ATOM     28  C   UNL     1       1.271   3.525  -1.119  1.00  0.00    +0.052 C 
ENDBRANCH  23  25
ENDBRANCH  22  23
ENDBRANCH   8  22
BRANCH  12  29
ATOM     29  C   UNL     1      -0.387  -2.346  -0.665  1.00  0.00    +0.067 CG0
ATOM     30  G   UNL     1      -1.894  -2.141  -0.883  1.00  0.00    +0.000 G0
ENDBRANCH  12  29
BRANCH  16  31
ATOM     31  O   UNL     1       2.366  -1.008  -2.070  1.00  0.00    -0.392 OA
ATOM     32  H   UNL     1       2.736  -1.352  -2.902  1.00  0.00    +0.210 HD
ENDBRANCH  16  31
BRANCH  17  33
ATOM     33  O   UNL     1       4.601   0.618  -1.085  1.00  0.00    -0.462 OA
BRANCH  33  34
ATOM     34  C   UNL     1       5.485   0.770  -2.105  1.00  0.00    +0.302 C 
ATOM     35  O   UNL     1       6.449   0.050  -2.323  1.00  0.00    -0.253 OA
ATOM     36  C   UNL     1       5.105   1.957  -2.935  1.00  0.00    +0.139 C 
ENDBRANCH  33  34
ENDBRANCH  17  33
ENDBRANCH   6   7
BRANCH   1  37
ATOM     37  O   UNL     1      -2.217  -0.918  -1.517  1.00  0.00    -0.345 OA
BRANCH  37  38
ATOM     38  C   UNL     1      -1.894  -2.141  -0.883  1.00  0.00    +0.251 CG0
ATOM     39  G   UNL     1      -0.387  -2.346  -0.665  1.00  0.00    +0.000 G0
BRANCH  38  40
ATOM     40  O   UNL     1      -2.320  -3.242  -1.703  1.00  0.00    -0.353 OA
BRANCH  40  41
ATOM     41  C   UNL     1      -3.732  -3.273  -1.880  1.00  0.00    +0.160 C 
ATOM     42  C   UNL     1      -4.078  -4.473  -2.740  1.00  0.00    +0.035 C 
ENDBRANCH  40  41
ENDBRANCH  38  40
ENDBRANCH  37  38
ENDBRANCH   1  37
BRANCH   3  43
ATOM     43  C   UNL     1      -5.042   0.230   0.312  1.00  0.00    +0.044 C 
ATOM     44  C   UNL     1      -5.308  -0.972   0.824  1.00  0.00    +0.026 C 
ATOM     45  C   UNL     1      -6.257   0.641  -0.408  1.00  0.00    +0.334 C 
ATOM     46  C   UNL     1      -6.665  -1.416   0.463  1.00  0.00    +0.261 C 
ATOM     47  O   UNL     1      -7.190  -0.346  -0.315  1.00  0.00    -0.458 OA
ATOM     48  O   UNL     1      -6.407   1.699  -0.992  1.00  0.00    -0.247 OA
ENDBRANCH   3  43
TORSDOF 9
