REMARK SMILES C[NH+](C)CCNC(=O)NC[C@H]1CC[C@@H]2[C@H](O1)c1cc(C(F)(F)F)ccc1[NH2+][C@H]2c1ccccc1
REMARK SMILES IDX 6 1 7 2 8 3 9 4 5 7 4 8 2 9 1 10 3 11 10 13 11 14 12 15
REMARK SMILES IDX 16 16 13 17 15 18 14 19 17 20 28 21 18 22 26 23 27 24 19 25
REMARK SMILES IDX 25 26 24 27 29 30 30 31 34 32 31 33 33 34 32 35 20 36 21 37
REMARK SMILES IDX 22 38 23 39
REMARK H PARENT 6 5 9 6 2 12 27 28 27 29
ROOT
ATOM      1  N   UNL     1       4.248   1.571   0.602  1.00  0.00    -0.333 N 
ATOM      2  C   UNL     1       3.586   0.389   0.464  1.00  0.00    +0.315 C 
ATOM      3  O   UNL     1       3.967  -0.490  -0.303  1.00  0.00    -0.249 OA
ATOM      4  N   UNL     1       2.505   0.280   1.284  1.00  0.00    -0.336 N 
ATOM      5  H   UNL     1       3.870   2.255   1.245  1.00  0.00    +0.165 HD
ATOM      6  H   UNL     1       2.213   1.072   1.838  1.00  0.00    +0.165 HD
ENDROOT
BRANCH   1   7
ATOM      7  C   UNL     1       5.376   1.974  -0.231  1.00  0.00    +0.179 C 
BRANCH   7   8
ATOM      8  C   UNL     1       6.652   1.120  -0.056  1.00  0.00    +0.283 C 
BRANCH   8   9
ATOM      9  N   UNL     1       6.535  -0.239  -0.717  1.00  0.00    -0.338 N 
ATOM     10  C   UNL     1       7.385  -1.277  -0.048  1.00  0.00    +0.332 C 
ATOM     11  C   UNL     1       6.757  -0.212  -2.199  1.00  0.00    +0.332 C 
ATOM     12  H   UNL     1       5.548  -0.548  -0.583  1.00  0.00    +0.347 HD
ENDBRANCH   8   9
ENDBRANCH   7   8
ENDBRANCH   1   7
BRANCH   4  13
ATOM     13  C   UNL     1       1.685  -0.922   1.335  1.00  0.00    +0.149 C 
BRANCH  13  14
ATOM     14  C   UNL     1       0.572  -0.908   0.272  1.00  0.00    +0.138 C 
ATOM     15  C   UNL     1      -0.122  -2.271   0.181  1.00  0.00    +0.034 C 
ATOM     16  O   UNL     1      -0.412   0.086   0.635  1.00  0.00    -0.368 OA
ATOM     17  C   UNL     1      -1.318  -2.226  -0.776  1.00  0.00    +0.016 C 
ATOM     18  C   UNL     1      -1.384   0.244  -0.404  1.00  0.00    +0.164 C 
ATOM     19  C   UNL     1      -2.241  -1.018  -0.517  1.00  0.00    +0.086 C 
ATOM     20  C   UNL     1      -2.263   1.414  -0.072  1.00  0.00    +0.043 A 
ATOM     21  C   UNL     1      -3.138  -1.245   0.734  1.00  0.00    +0.224 C 
ATOM     22  C   UNL     1      -2.101   2.663  -0.685  1.00  0.00    +0.025 A 
ATOM     23  C   UNL     1      -3.288   1.243   0.856  1.00  0.00    +0.135 A 
ATOM     24  N   UNL     1      -3.366  -0.016   1.565  1.00  0.00    -0.307 N 
ATOM     25  C   UNL     1      -2.965   3.729  -0.378  1.00  0.00    +0.056 A 
ATOM     26  C   UNL     1      -4.161   2.280   1.171  1.00  0.00    +0.069 A 
ATOM     27  C   UNL     1      -4.003   3.520   0.545  1.00  0.00    +0.019 A 
ATOM     28  H   UNL     1      -2.652   0.026   2.305  1.00  0.00    +0.352 HD
ATOM     29  H   UNL     1      -4.275  -0.097   2.040  1.00  0.00    +0.352 HD
BRANCH  21  30
ATOM     30  C   UNL     1      -4.461  -1.913   0.403  1.00  0.00    +0.010 A 
ATOM     31  C   UNL     1      -4.771  -3.167   0.955  1.00  0.00    +0.010 A 
ATOM     32  C   UNL     1      -5.412  -1.289  -0.424  1.00  0.00    +0.010 A 
ATOM     33  C   UNL     1      -5.995  -3.780   0.684  1.00  0.00    +0.001 A 
ATOM     34  C   UNL     1      -6.635  -1.907  -0.692  1.00  0.00    +0.001 A 
ATOM     35  C   UNL     1      -6.925  -3.151  -0.138  1.00  0.00    +0.000 A 
ENDBRANCH  21  30
BRANCH  25  36
ATOM     36  C   UNL     1      -2.790   5.073  -1.063  1.00  0.00    +0.416 C 
ATOM     37  F   UNL     1      -1.478   5.400  -1.214  1.00  0.00    -0.166 F 
ATOM     38  F   UNL     1      -3.332   5.079  -2.307  1.00  0.00    -0.166 F 
ATOM     39  F   UNL     1      -3.363   6.097  -0.380  1.00  0.00    -0.166 F 
ENDBRANCH  25  36
ENDBRANCH  13  14
ENDBRANCH   4  13
TORSDOF 7
