REMARK SMILES NC(=O)c1cccc(-c2cnn3c(-c4cccc(NC(=O)c5cccc(C(F)(F)F)c5)c4)ccnc23)c1
REMARK SMILES IDX 14 1 15 2 16 3 17 4 18 5 32 6 13 7 9 8 10 9 36 10 11 11
REMARK SMILES IDX 35 12 12 13 34 14 33 15 8 16 4 17 5 18 37 19 6 20 7 21 2 22
REMARK SMILES IDX 1 23 3 24 19 27 20 28 21 29 22 31 23 32 31 33 24 34 26 35
REMARK SMILES IDX 25 36 27 37 28 38 29 39 30 40
REMARK H PARENT 1 25 1 26 19 30
ROOT
ATOM      1  C   UNL     1       0.297   0.776  -1.317  1.00  0.00    +0.002 A 
ATOM      2  C   UNL     1       0.302   0.784  -2.717  1.00  0.00    +0.010 A 
ATOM      3  C   UNL     1       1.505   0.737  -3.420  1.00  0.00    +0.003 A 
ATOM      4  C   UNL     1       2.716   0.690  -2.731  1.00  0.00    +0.026 A 
ATOM      5  C   UNL     1       2.739   0.690  -1.332  1.00  0.00    +0.042 A 
ATOM      6  C   UNL     1       1.527   0.723  -0.635  1.00  0.00    +0.036 A 
ENDROOT
BRANCH   1   7
ATOM      7  C   UNL     1      -0.977   0.826  -0.566  1.00  0.00    +0.076 C 
ATOM      8  C   UNL     1      -4.059  -0.994  -0.570  1.00  0.00    +0.047 A 
ATOM      9  C   UNL     1      -3.288  -1.627  -1.565  1.00  0.00    +0.146 A 
ATOM     10  C   UNL     1      -3.243   0.020  -0.095  1.00  0.00    +0.163 A 
ATOM     11  N   UNL     1      -2.087  -1.079  -1.732  1.00  0.00    -0.174 NA
ATOM     12  N   UNL     1      -3.430   0.967   0.882  1.00  0.00    -0.236 NA
ATOM     13  N   UNL     1      -2.039  -0.066  -0.822  1.00  0.00    -0.214 N 
ATOM     14  C   UNL     1      -2.433   1.768   1.097  1.00  0.00    +0.116 C 
ATOM     15  C   UNL     1      -1.133   1.766   0.386  1.00  0.00    +0.049 C 
BRANCH   8  16
ATOM     16  C   UNL     1      -5.399  -1.308  -0.095  1.00  0.00    -0.012 A 
ATOM     17  C   UNL     1      -7.556  -0.614   0.800  1.00  0.00    +0.040 A 
ATOM     18  C   UNL     1      -7.990  -1.944   0.788  1.00  0.00    +0.014 A 
ATOM     19  C   UNL     1      -6.270  -0.299   0.341  1.00  0.00    +0.022 A 
ATOM     20  C   UNL     1      -7.136  -2.954   0.349  1.00  0.00    +0.001 A 
ATOM     21  C   UNL     1      -5.847  -2.638  -0.086  1.00  0.00    +0.009 A 
BRANCH  17  22
ATOM     22  C   UNL     1      -8.495   0.429   1.289  1.00  0.00    +0.248 C 
ATOM     23  N   UNL     1      -7.956   1.588   1.773  1.00  0.00    -0.366 N 
ATOM     24  O   UNL     1      -9.707   0.252   1.290  1.00  0.00    -0.270 OA
ATOM     25  H   UNL     1      -8.598   2.290   2.116  1.00  0.00    +0.159 HD
ATOM     26  H   UNL     1      -6.965   1.748   1.880  1.00  0.00    +0.159 HD
ENDBRANCH  17  22
ENDBRANCH   8  16
ENDBRANCH   1   7
BRANCH   5  27
ATOM     27  N   UNL     1       4.003   0.641  -0.706  1.00  0.00    -0.322 N 
ATOM     28  C   UNL     1       4.271   0.754   0.647  1.00  0.00    +0.255 C 
ATOM     29  O   UNL     1       3.471   1.034   1.532  1.00  0.00    -0.269 OA
ATOM     30  H   UNL     1       4.796   0.567  -1.330  1.00  0.00    +0.170 HD
BRANCH  28  31
ATOM     31  C   UNL     1       5.700   0.561   1.022  1.00  0.00    +0.040 A 
ATOM     32  C   UNL     1       6.224   1.323   2.073  1.00  0.00    +0.014 A 
ATOM     33  C   UNL     1       6.512  -0.382   0.375  1.00  0.00    +0.027 A 
ATOM     34  C   UNL     1       7.555   1.165   2.458  1.00  0.00    +0.001 A 
ATOM     35  C   UNL     1       7.857  -0.542   0.753  1.00  0.00    +0.056 A 
ATOM     36  C   UNL     1       8.368   0.240   1.801  1.00  0.00    +0.013 A 
BRANCH  35  37
ATOM     37  C   UNL     1       8.724  -1.572   0.069  1.00  0.00    +0.416 C 
ATOM     38  F   UNL     1       8.411  -1.726  -1.248  1.00  0.00    -0.166 F 
ATOM     39  F   UNL     1       8.605  -2.804   0.630  1.00  0.00    -0.166 F 
ATOM     40  F   UNL     1      10.050  -1.266   0.102  1.00  0.00    -0.166 F 
ENDBRANCH  35  37
ENDBRANCH  28  31
ENDBRANCH   5  27
TORSDOF 6
