REMARK SMILES NC(=O)c1cc(S(=O)(=O)NCc2ccc(Cl)cc2)c2c(c1)nc(NCc1ccccc1Cl)n2C[C@H]1CCCCC[C@H]1O
REMARK SMILES IDX 4 1 5 2 6 3 19 4 20 5 21 6 22 7 23 8 33 9 2 10 1 11 3 12
REMARK SMILES IDX 7 15 8 16 9 17 10 18 11 20 12 21 13 22 18 23 14 24 17 25
REMARK SMILES IDX 15 26 16 27 34 28 35 29 36 30 37 31 38 32 39 33 41 35 40 36
REMARK SMILES IDX 42 38 24 40 25 42 26 43 27 44 31 45 28 46 30 47 29 48 32 49
REMARK H PARENT 1 13 1 14 10 19 42 39 24 41
REMARK Flexibility Score:   81.900
ROOT
ATOM      1  C   UNL     1       2.284   2.623  -1.765  1.00  0.00    +0.043 A 
ATOM      2  C   UNL     1       2.650   1.407  -1.180  1.00  0.00    +0.038 A 
ATOM      3  C   UNL     1       1.775   0.668  -0.355  1.00  0.00    +0.109 A 
ATOM      4  C   UNL     1       0.467   1.189  -0.185  1.00  0.00    +0.090 A 
ATOM      5  C   UNL     1       0.109   2.416  -0.755  1.00  0.00    +0.093 A 
ATOM      6  C   UNL     1       1.014   3.147  -1.538  1.00  0.00    +0.044 A 
ATOM      7  N   UNL     1      -1.168   2.773  -0.439  1.00  0.00    -0.213 NA
ATOM      8  C   UNL     1      -1.645   1.795   0.287  1.00  0.00    +0.204 A 
ATOM      9  N   UNL     1      -0.700   0.796   0.460  1.00  0.00    -0.309 N 
ENDROOT
BRANCH   1  10
ATOM     10  C   UNL     1       3.299   3.338  -2.583  1.00  0.00    +0.248 C 
ATOM     11  N   UNL     1       2.858   4.253  -3.494  1.00  0.00    -0.366 N 
ATOM     12  O   UNL     1       4.494   3.098  -2.459  1.00  0.00    -0.270 OA
ATOM     13  H   UNL     1       1.887   4.442  -3.693  1.00  0.00    +0.159 HD
ATOM     14  H   UNL     1       3.558   4.730  -4.048  1.00  0.00    +0.159 HD
ENDBRANCH   1  10
BRANCH   3  15
ATOM     15  S   UNL     1       2.405  -0.816   0.402  1.00  0.00    +0.243 S 
ATOM     16  O   UNL     1       1.761  -1.927  -0.261  1.00  0.00    -0.207 OA
ATOM     17  O   UNL     1       2.360  -0.642   1.835  1.00  0.00    -0.207 OA
BRANCH  15  18
ATOM     18  N   UNL     1       4.018  -0.910  -0.038  1.00  0.00    -0.207 NA
ATOM     19  H   UNL     1       4.264  -1.810  -0.449  1.00  0.00    +0.141 HD
BRANCH  18  20
ATOM     20  C   UNL     1       5.004  -0.289   0.848  1.00  0.00    +0.134 C 
BRANCH  20  21
ATOM     21  C   UNL     1       6.372  -0.298   0.208  1.00  0.00    -0.033 A 
ATOM     22  C   UNL     1       7.259  -1.361   0.440  1.00  0.00    +0.006 A 
ATOM     23  C   UNL     1       6.756   0.730  -0.666  1.00  0.00    +0.006 A 
ATOM     24  C   UNL     1       8.513  -1.384  -0.176  1.00  0.00    +0.021 A 
ATOM     25  C   UNL     1       8.009   0.705  -1.283  1.00  0.00    +0.021 A 
ATOM     26  C   UNL     1       8.883  -0.350  -1.034  1.00  0.00    +0.041 A 
ATOM     27 Cl   UNL     1      10.426  -0.382  -1.794  1.00  0.00    -0.084 Cl
ENDBRANCH  20  21
ENDBRANCH  18  20
ENDBRANCH  15  18
ENDBRANCH   3  15
BRANCH   9  28
ATOM     28  C   UNL     1      -0.927  -0.405   1.246  1.00  0.00    +0.132 C 
BRANCH  28  29
ATOM     29  C   UNL     1      -1.403  -1.645   0.442  1.00  0.00    +0.038 C 
BRANCH  29  30
ATOM     30  C   UNL     1      -1.318  -2.865   1.384  1.00  0.00    +0.008 C 
BRANCH  30  31
ATOM     31  C   UNL     1      -1.089  -4.209   0.700  1.00  0.00    +0.000 C 
BRANCH  31  32
ATOM     32  C   UNL     1      -1.900  -4.499  -0.555  1.00  0.00    +0.000 C 
BRANCH  32  33
ATOM     33  C   UNL     1      -3.322  -3.954  -0.532  1.00  0.00    +0.003 CG0
ATOM     34  G   UNL     1      -3.396  -2.514  -1.035  1.00  0.00    +0.000 G0
ENDBRANCH  32  33
ENDBRANCH  31  32
ENDBRANCH  30  31
ENDBRANCH  29  30
BRANCH  29  35
ATOM     35  C   UNL     1      -2.825  -1.426  -0.120  1.00  0.00    +0.119 C 
BRANCH  35  36
ATOM     36  C   UNL     1      -3.396  -2.514  -1.035  1.00  0.00    +0.032 CG0
ATOM     37  G   UNL     1      -3.322  -3.954  -0.532  1.00  0.00    +0.000 G0
ENDBRANCH  35  36
BRANCH  35  38
ATOM     38  O   UNL     1      -3.733  -1.150   0.951  1.00  0.00    -0.393 OA
ATOM     39  H   UNL     1      -4.132  -1.988   1.242  1.00  0.00    +0.210 HD
ENDBRANCH  35  38
ENDBRANCH  29  35
ENDBRANCH  28  29
ENDBRANCH   9  28
BRANCH   8  40
ATOM     40  N   UNL     1      -2.890   1.709   0.789  1.00  0.00    -0.351 N 
ATOM     41  H   UNL     1      -3.281   0.854   1.188  1.00  0.00    +0.163 HD
BRANCH  40  42
ATOM     42  C   UNL     1      -3.810   2.815   0.629  1.00  0.00    +0.153 C 
BRANCH  42  43
ATOM     43  C   UNL     1      -5.163   2.441   1.186  1.00  0.00    -0.010 A 
ATOM     44  C   UNL     1      -6.070   1.758   0.352  1.00  0.00    +0.007 A 
ATOM     45  C   UNL     1      -5.543   2.701   2.511  1.00  0.00    +0.046 A 
ATOM     46  C   UNL     1      -7.326   1.371   0.820  1.00  0.00    +0.000 A 
ATOM     47  C   UNL     1      -6.805   2.312   2.977  1.00  0.00    +0.021 A 
ATOM     48  C   UNL     1      -7.696   1.651   2.132  1.00  0.00    +0.002 A 
ATOM     49 Cl   UNL     1      -4.492   3.491   3.631  1.00  0.00    -0.084 Cl
ENDBRANCH  42  43
ENDBRANCH  40  42
ENDBRANCH   8  40
TORSDOF 11
