REMARK SMILES CC(C)Oc1ccc(-c2nn([C@@H](C)c3oc4ccc(F)cc4c(=O)c3-c3cccc(F)c3)c3ncnc(N)c23)cc1F
REMARK SMILES IDX 9 1 10 2 11 3 33 4 34 5 35 6 36 7 37 8 39 9 8 10 5 11 6 12
REMARK SMILES IDX 41 13 7 14 40 15 42 16 4 17 2 18 1 19 3 20 12 21 13 22 14 23
REMARK SMILES IDX 15 24 25 25 16 26 23 27 17 28 22 29 24 30 18 31 21 32 19 33
REMARK SMILES IDX 20 34 26 35 27 36 32 37 28 38 30 39 29 40 31 41 38 42
REMARK H PARENT 38 43 38 44
ROOT
ATOM      1  C   UNL     1       1.176  -0.384   0.948  1.00  0.00    +0.106 A 
ATOM      2  N   UNL     1       0.270   0.597   1.106  1.00  0.00    -0.169 NA
ATOM      3  N   UNL     1      -0.867  -0.053   1.451  1.00  0.00    -0.236 N 
ATOM      4  C   UNL     1      -0.702  -1.408   1.557  1.00  0.00    +0.164 A 
ATOM      5  N   UNL     1      -1.642  -2.310   1.888  1.00  0.00    -0.217 NA
ATOM      6  C   UNL     1      -1.141  -3.554   1.909  1.00  0.00    +0.226 A 
ATOM      7  N   UNL     1       0.124  -3.939   1.656  1.00  0.00    -0.219 NA
ATOM      8  C   UNL     1       1.039  -2.999   1.335  1.00  0.00    +0.138 A 
ATOM      9  C   UNL     1       0.625  -1.662   1.257  1.00  0.00    +0.089 A 
ENDROOT
BRANCH   1  10
ATOM     10  C   UNL     1       2.526  -0.058   0.503  1.00  0.00    +0.006 A 
ATOM     11  C   UNL     1       5.128   0.601  -0.365  1.00  0.00    +0.155 A 
ATOM     12  C   UNL     1       4.568   1.227   0.753  1.00  0.00    +0.050 A 
ATOM     13  C   UNL     1       4.369  -0.358  -1.039  1.00  0.00    +0.165 A 
ATOM     14  C   UNL     1       3.276   0.909   1.182  1.00  0.00    +0.014 A 
ATOM     15  C   UNL     1       3.078  -0.683  -0.618  1.00  0.00    +0.053 A 
ATOM     16  F   UNL     1       4.847  -1.018  -2.103  1.00  0.00    -0.203 F 
BRANCH  11  17
ATOM     17  O   UNL     1       6.399   1.015  -0.649  1.00  0.00    -0.488 OA
BRANCH  17  18
ATOM     18  C   UNL     1       7.002   0.642  -1.891  1.00  0.00    +0.167 C 
ATOM     19  C   UNL     1       7.796  -0.648  -1.712  1.00  0.00    +0.052 C 
ATOM     20  C   UNL     1       7.945   1.780  -2.279  1.00  0.00    +0.052 C 
ENDBRANCH  17  18
ENDBRANCH  11  17
ENDBRANCH   1  10
BRANCH   3  21
ATOM     21  C   UNL     1      -2.122   0.674   1.669  1.00  0.00    +0.174 C 
ATOM     22  C   UNL     1      -1.905   2.042   2.329  1.00  0.00    +0.042 C 
BRANCH  21  23
ATOM     23  C   UNL     1      -2.906   0.812   0.364  1.00  0.00    +0.140 C 
ATOM     24  O   UNL     1      -2.176   1.475  -0.618  1.00  0.00    -0.458 OA
ATOM     25  C   UNL     1      -4.164   0.354   0.175  1.00  0.00    +0.071 C 
ATOM     26  C   UNL     1      -2.714   1.635  -1.864  1.00  0.00    +0.138 A 
ATOM     27  C   UNL     1      -4.803   0.552  -1.159  1.00  0.00    +0.200 C 
ATOM     28  C   UNL     1      -1.917   2.262  -2.823  1.00  0.00    +0.051 A 
ATOM     29  C   UNL     1      -3.994   1.208  -2.192  1.00  0.00    +0.068 A 
ATOM     30  O   UNL     1      -5.949   0.191  -1.399  1.00  0.00    -0.288 OA
ATOM     31  C   UNL     1      -2.412   2.458  -4.113  1.00  0.00    +0.043 A 
ATOM     32  C   UNL     1      -4.498   1.402  -3.481  1.00  0.00    +0.055 A 
ATOM     33  C   UNL     1      -3.698   2.027  -4.429  1.00  0.00    +0.124 A 
ATOM     34  F   UNL     1      -4.169   2.218  -5.667  1.00  0.00    -0.207 F 
BRANCH  25  35
ATOM     35  C   UNL     1      -4.928  -0.326   1.232  1.00  0.00    -0.008 A 
ATOM     36  C   UNL     1      -5.689   0.418   2.147  1.00  0.00    +0.009 A 
ATOM     37  C   UNL     1      -4.890  -1.720   1.343  1.00  0.00    +0.048 A 
ATOM     38  C   UNL     1      -6.396  -0.226   3.165  1.00  0.00    +0.004 A 
ATOM     39  C   UNL     1      -5.595  -2.348   2.363  1.00  0.00    +0.123 A 
ATOM     40  C   UNL     1      -6.346  -1.615   3.275  1.00  0.00    +0.039 A 
ATOM     41  F   UNL     1      -5.544  -3.682   2.473  1.00  0.00    -0.207 F 
ENDBRANCH  25  35
ENDBRANCH  21  23
ENDBRANCH   3  21
BRANCH   8  42
ATOM     42  N   UNL     1       2.323  -3.441   1.131  1.00  0.00    -0.383 N 
ATOM     43  H   UNL     1       3.102  -2.815   1.015  1.00  0.00    +0.158 HD
ATOM     44  H   UNL     1       2.478  -4.432   1.259  1.00  0.00    +0.158 HD
ENDBRANCH   8  42
TORSDOF 7
