REMARK SMILES Cc1cn(-c2cc(NC(=O)c3ccc(C)c(Nc4nccc(-c5cccnc5)n4)c3)cc(C(F)(F)F)c2)cn1
REMARK SMILES IDX 11 1 12 2 13 3 14 4 15 5 16 6 30 7 9 8 8 9 10 10 7 12 5 13
REMARK SMILES IDX 6 14 37 15 32 16 31 17 4 18 2 19 3 20 39 21 38 22 1 23 33 24
REMARK SMILES IDX 34 25 35 26 36 27 17 28 18 30 19 31 29 32 20 33 22 34 21 35
REMARK SMILES IDX 23 36 24 37 28 38 25 39 27 40 26 41
REMARK H PARENT 8 11 17 29
ROOT
ATOM      1  C   UNL     1      -0.036   1.387   2.308  1.00  0.00    +0.042 A 
ATOM      2  C   UNL     1       0.135   2.158   3.457  1.00  0.00    +0.014 A 
ATOM      3  C   UNL     1       1.419   2.475   3.892  1.00  0.00    +0.006 A 
ATOM      4  C   UNL     1       2.549   2.021   3.187  1.00  0.00    -0.027 A 
ATOM      5  C   UNL     1       3.913   2.414   3.696  1.00  0.00    +0.046 C 
ATOM      6  C   UNL     1       2.391   1.212   2.037  1.00  0.00    +0.045 A 
ATOM      7  C   UNL     1       1.087   0.904   1.622  1.00  0.00    +0.040 A 
ENDROOT
BRANCH   1   8
ATOM      8  C   UNL     1      -1.421   1.078   1.853  1.00  0.00    +0.255 C 
ATOM      9  N   UNL     1      -1.580   0.997   0.480  1.00  0.00    -0.322 N 
ATOM     10  O   UNL     1      -2.300   0.959   2.698  1.00  0.00    -0.269 OA
ATOM     11  H   UNL     1      -0.771   1.230  -0.084  1.00  0.00    +0.170 HD
BRANCH   9  12
ATOM     12  C   UNL     1      -2.753   0.673  -0.233  1.00  0.00    +0.044 A 
ATOM     13  C   UNL     1      -5.094  -0.000  -0.402  1.00  0.00    +0.049 A 
ATOM     14  C   UNL     1      -3.964   0.319   0.371  1.00  0.00    +0.052 A 
ATOM     15  C   UNL     1      -4.994   0.038  -1.800  1.00  0.00    +0.039 A 
ATOM     16  C   UNL     1      -3.788   0.396  -2.424  1.00  0.00    +0.060 A 
ATOM     17  C   UNL     1      -2.673   0.704  -1.629  1.00  0.00    +0.039 A 
BRANCH  13  18
ATOM     18  N   UNL     1      -6.324  -0.360   0.228  1.00  0.00    -0.306 N 
ATOM     19  C   UNL     1      -8.413  -0.972   0.618  1.00  0.00    +0.056 A 
ATOM     20  C   UNL     1      -7.510  -0.704  -0.388  1.00  0.00    +0.116 A 
ATOM     21  N   UNL     1      -7.823  -0.805   1.839  1.00  0.00    -0.242 NA
ATOM     22  C   UNL     1      -6.586  -0.441   1.580  1.00  0.00    +0.204 A 
ATOM     23  C   UNL     1      -9.829  -1.386   0.517  1.00  0.00    +0.068 C 
ENDBRANCH  13  18
BRANCH  16  24
ATOM     24  C   UNL     1      -3.674   0.411  -3.929  1.00  0.00    +0.416 C 
ATOM     25  F   UNL     1      -2.808   1.359  -4.386  1.00  0.00    -0.166 F 
ATOM     26  F   UNL     1      -3.223  -0.775  -4.422  1.00  0.00    -0.166 F 
ATOM     27  F   UNL     1      -4.858   0.655  -4.555  1.00  0.00    -0.166 F 
ENDBRANCH  16  24
ENDBRANCH   9  12
ENDBRANCH   1   8
BRANCH   6  28
ATOM     28  N   UNL     1       3.517   0.778   1.323  1.00  0.00    -0.324 N 
ATOM     29  H   UNL     1       4.415   0.859   1.776  1.00  0.00    +0.170 HD
BRANCH  28  30
ATOM     30  C   UNL     1       3.705   0.200   0.070  1.00  0.00    +0.227 A 
ATOM     31  N   UNL     1       2.695   0.037  -0.797  1.00  0.00    -0.221 NA
ATOM     32  N   UNL     1       4.972  -0.151  -0.204  1.00  0.00    -0.213 NA
ATOM     33  C   UNL     1       2.991  -0.518  -1.984  1.00  0.00    +0.117 A 
ATOM     34  C   UNL     1       5.247  -0.698  -1.410  1.00  0.00    +0.077 A 
ATOM     35  C   UNL     1       4.256  -0.907  -2.347  1.00  0.00    +0.049 A 
BRANCH  34  36
ATOM     36  C   UNL     1       6.657  -1.059  -1.636  1.00  0.00    +0.019 A 
ATOM     37  C   UNL     1       7.497  -1.447  -0.581  1.00  0.00    +0.013 A 
ATOM     38  C   UNL     1       7.253  -1.032  -2.899  1.00  0.00    +0.121 A 
ATOM     39  C   UNL     1       8.828  -1.791  -0.815  1.00  0.00    +0.021 A 
ATOM     40  N   UNL     1       8.541  -1.365  -3.165  1.00  0.00    -0.264 NA
ATOM     41  C   UNL     1       9.299  -1.737  -2.114  1.00  0.00    +0.111 A 
ENDBRANCH  34  36
ENDBRANCH  28  30
ENDBRANCH   6  28
TORSDOF 7
