REMARK SMILES C[C@@H]1C[C@H]2O[C@@]3(C[C@@H]2C(C)(C)O)[C@H](O)[C@@]2(C)[C@@H]4CC[C@H]5C(C)(C)C(=O)CC[C@@]56C[C@@]46CC[C@]2(C)[C@@H]13
REMARK SMILES IDX 1 1 2 2 3 3 4 4 5 5 6 6 7 7 8 8 13 9 15 10 16 11 17 12 18 13
REMARK SMILES IDX 19 14 20 15 21 16 22 17 23 18 24 19 25 20 26 21 27 22 28 23
REMARK SMILES IDX 29 24 30 25 31 26 32 27 33 28 34 29 35 30 9 31 10 32 11 33
REMARK SMILES IDX 12 34 14 36
REMARK H PARENT 12 35 14 37
ROOT
ATOM      1  C   UNL     1      -2.858  -1.286   3.534  1.00  0.00    +0.008 C 
ATOM      2  C   UNL     1      -2.991  -0.254   2.416  1.00  0.00    -0.005 C 
ATOM      3  C   UNL     1      -4.469  -0.087   2.019  1.00  0.00    +0.036 C 
ATOM      4  C   UNL     1      -4.653   0.682   0.697  1.00  0.00    +0.125 C 
ATOM      5  O   UNL     1      -3.408   1.319   0.355  1.00  0.00    -0.368 OA
ATOM      6  C   UNL     1      -2.564   0.232  -0.080  1.00  0.00    +0.099 C 
ATOM      7  C   UNL     1      -3.500  -0.569  -1.000  1.00  0.00    +0.048 C 
ATOM      8  C   UNL     1      -4.913  -0.260  -0.485  1.00  0.00    +0.052 C 
ATOM      9  C   UNL     1      -1.258   0.779  -0.718  1.00  0.00    +0.153 C 
ATOM     10  C   UNL     1      -0.153  -0.194  -0.235  1.00  0.00    +0.005 C 
ATOM     11  C   UNL     1      -0.237  -1.524  -1.050  1.00  0.00    +0.015 C 
ATOM     12  C   UNL     1       1.292   0.374  -0.323  1.00  0.00    +0.005 C 
ATOM     13  C   UNL     1       1.846   0.465  -1.753  1.00  0.00    +0.005 C 
ATOM     14  C   UNL     1       3.251   1.059  -1.759  1.00  0.00    +0.005 C 
ATOM     15  C   UNL     1       4.240   0.078  -1.117  1.00  0.00    +0.009 C 
ATOM     16  C   UNL     1       5.726   0.562  -1.115  1.00  0.00    +0.027 C 
ATOM     17  C   UNL     1       5.955   1.866  -0.336  1.00  0.00    +0.020 C 
ATOM     18  C   UNL     1       6.219   0.779  -2.562  1.00  0.00    +0.020 C 
ATOM     19  C   UNL     1       6.588  -0.538  -0.466  1.00  0.00    +0.138 C 
ATOM     20  O   UNL     1       7.665  -0.902  -0.942  1.00  0.00    -0.299 OA
ATOM     21  C   UNL     1       6.118  -1.105   0.854  1.00  0.00    +0.077 C 
ATOM     22  C   UNL     1       4.668  -1.547   0.760  1.00  0.00    +0.016 C 
ATOM     23  C   UNL     1       3.790  -0.405   0.271  1.00  0.00    -0.019 C 
ATOM     24  C   UNL     1       3.286   0.553   1.316  1.00  0.00    +0.016 C 
ATOM     25  C   UNL     1       2.277  -0.361   0.633  1.00  0.00    -0.020 C 
ATOM     26  C   UNL     1       1.725  -1.528   1.464  1.00  0.00    +0.008 C 
ATOM     27  C   UNL     1       0.242  -1.504   1.872  1.00  0.00    +0.008 C 
ATOM     28  C   UNL     1      -0.565  -0.347   1.276  1.00  0.00    -0.018 C 
ATOM     29  C   UNL     1      -0.282   0.914   2.148  1.00  0.00    +0.012 C 
ATOM     30  C   UNL     1      -2.118  -0.593   1.181  1.00  0.00    +0.033 C 
ENDROOT
BRANCH   8  31
ATOM     31  C   UNL     1      -5.856   0.329  -1.573  1.00  0.00    +0.065 C 
ATOM     32  C   UNL     1      -5.414   1.688  -2.126  1.00  0.00    +0.042 C 
ATOM     33  C   UNL     1      -7.296   0.439  -1.052  1.00  0.00    +0.042 C 
BRANCH  31  34
ATOM     34  O   UNL     1      -5.884  -0.580  -2.683  1.00  0.00    -0.390 OA
ATOM     35  H   UNL     1      -6.228  -1.435  -2.370  1.00  0.00    +0.211 HD
ENDBRANCH  31  34
ENDBRANCH   8  31
BRANCH   9  36
ATOM     36  O   UNL     1      -1.318   0.906  -2.130  1.00  0.00    -0.390 OA
ATOM     37  H   UNL     1      -2.027   1.546  -2.321  1.00  0.00    +0.211 HD
ENDBRANCH   9  36
TORSDOF 3
