REMARK SMILES C[C@H](O)CNc1nccc(-n2ccnc2-c2cccc(NC(=O)c3cc(N4CC[NH+](C)CC4)cc(C(F)(F)F)c3)c2)n1
REMARK SMILES IDX 6 1 7 2 8 3 9 4 10 5 42 6 5 7 4 9 2 10 1 11 3 12 11 14 12 15
REMARK SMILES IDX 15 16 13 17 14 18 16 19 17 20 41 21 18 22 20 23 19 24 21 25
REMARK SMILES IDX 22 26 23 27 24 29 25 30 40 31 26 32 35 33 34 34 27 35 28 36
REMARK SMILES IDX 33 37 29 38 32 39 30 40 31 41 36 43 37 44 38 45 39 46
REMARK H PARENT 5 8 3 13 21 28 30 42
ROOT
ATOM      1  C   UNL     1       6.943  -0.796  -0.143  1.00  0.00    +0.224 A 
ATOM      2  N   UNL     1       6.588  -0.711   1.142  1.00  0.00    -0.222 NA
ATOM      3  C   UNL     1       5.348  -0.270   1.404  1.00  0.00    +0.119 A 
ATOM      4  C   UNL     1       4.452   0.109   0.434  1.00  0.00    +0.068 A 
ATOM      5  C   UNL     1       4.905   0.019  -0.863  1.00  0.00    +0.143 A 
ATOM      6  N   UNL     1       6.143  -0.450  -1.156  1.00  0.00    -0.195 NA
ENDROOT
BRANCH   1   7
ATOM      7  N   UNL     1       8.182  -1.257  -0.493  1.00  0.00    -0.352 N 
ATOM      8  H   UNL     1       8.403  -1.140  -1.471  1.00  0.00    +0.163 HD
BRANCH   7   9
ATOM      9  C   UNL     1       9.209  -1.463   0.510  1.00  0.00    +0.147 C 
BRANCH   9  10
ATOM     10  C   UNL     1      10.414  -2.208  -0.098  1.00  0.00    +0.130 C 
ATOM     11  C   UNL     1      11.187  -1.369  -1.107  1.00  0.00    +0.040 C 
BRANCH  10  12
ATOM     12  O   UNL     1       9.979  -3.409  -0.743  1.00  0.00    -0.392 OA
ATOM     13  H   UNL     1       9.031  -3.287  -0.947  1.00  0.00    +0.211 HD
ENDBRANCH  10  12
ENDBRANCH   9  10
ENDBRANCH   7   9
ENDBRANCH   1   7
BRANCH   5  14
ATOM     14  N   UNL     1       4.079   0.369  -1.977  1.00  0.00    -0.284 N 
ATOM     15  C   UNL     1       4.367   0.001  -3.280  1.00  0.00    +0.115 A 
ATOM     16  C   UNL     1       2.884   1.090  -2.046  1.00  0.00    +0.145 A 
ATOM     17  C   UNL     1       3.293   0.384  -4.037  1.00  0.00    +0.132 A 
ATOM     18  N   UNL     1       2.375   1.035  -3.268  1.00  0.00    -0.236 NA
BRANCH  16  19
ATOM     19  C   UNL     1       2.269   1.880  -0.980  1.00  0.00    +0.020 A 
ATOM     20  C   UNL     1       2.925   2.997  -0.450  1.00  0.00    +0.012 A 
ATOM     21  C   UNL     1       0.983   1.550  -0.523  1.00  0.00    +0.038 A 
ATOM     22  C   UNL     1       2.314   3.758   0.545  1.00  0.00    +0.003 A 
ATOM     23  C   UNL     1       0.363   2.306   0.474  1.00  0.00    +0.042 A 
ATOM     24  C   UNL     1       1.041   3.412   1.004  1.00  0.00    +0.026 A 
BRANCH  23  25
ATOM     25  N   UNL     1      -0.929   2.040   0.984  1.00  0.00    -0.322 N 
ATOM     26  C   UNL     1      -1.757   0.986   0.645  1.00  0.00    +0.255 C 
ATOM     27  O   UNL     1      -1.515   0.086  -0.150  1.00  0.00    -0.269 OA
ATOM     28  H   UNL     1      -1.279   2.726   1.639  1.00  0.00    +0.170 HD
BRANCH  26  29
ATOM     29  C   UNL     1      -3.096   0.977   1.303  1.00  0.00    +0.042 A 
ATOM     30  C   UNL     1      -4.168   0.424   0.582  1.00  0.00    +0.039 A 
ATOM     31  C   UNL     1      -3.306   1.450   2.598  1.00  0.00    +0.027 A 
ATOM     32  C   UNL     1      -5.466   0.349   1.108  1.00  0.00    +0.038 A 
ATOM     33  C   UNL     1      -4.591   1.398   3.157  1.00  0.00    +0.058 A 
ATOM     34  C   UNL     1      -5.649   0.844   2.407  1.00  0.00    +0.039 A 
BRANCH  32  35
ATOM     35  N   UNL     1      -6.497  -0.221   0.371  1.00  0.00    -0.360 N 
ATOM     36  C   UNL     1      -7.658  -0.819   1.047  1.00  0.00    +0.178 C 
ATOM     37  C   UNL     1      -6.687   0.213  -1.027  1.00  0.00    +0.178 C 
ATOM     38  C   UNL     1      -8.281  -1.941   0.188  1.00  0.00    +0.283 C 
ATOM     39  C   UNL     1      -7.304  -0.915  -1.878  1.00  0.00    +0.283 C 
ATOM     40  N   UNL     1      -8.577  -1.444  -1.223  1.00  0.00    -0.334 N 
ATOM     41  C   UNL     1      -9.242  -2.494  -2.061  1.00  0.00    +0.332 C 
ATOM     42  H   UNL     1      -9.227  -0.652  -1.139  1.00  0.00    +0.347 HD
ENDBRANCH  32  35
BRANCH  33  43
ATOM     43  C   UNL     1      -4.839   1.886   4.565  1.00  0.00    +0.416 C 
ATOM     44  F   UNL     1      -3.937   2.820   4.969  1.00  0.00    -0.166 F 
ATOM     45  F   UNL     1      -6.066   2.458   4.711  1.00  0.00    -0.166 F 
ATOM     46  F   UNL     1      -4.781   0.877   5.474  1.00  0.00    -0.166 F 
ENDBRANCH  33  43
ENDBRANCH  26  29
ENDBRANCH  23  25
ENDBRANCH  16  19
ENDBRANCH   5  14
TORSDOF 10
