REMARK SMILES Cc1c(C(=O)[N-]N/C=C(\N[N-]C(=O)c2oc3ccccc3c2C)c2ccc(Cl)cc2)oc2ccccc12
REMARK SMILES IDX 8 1 9 2 7 3 6 5 4 6 5 7 3 8 2 9 37 10 31 11 36 12 32 13
REMARK SMILES IDX 35 14 33 15 34 16 1 17 10 18 11 20 12 21 13 22 14 23 15 24
REMARK SMILES IDX 22 25 16 26 21 27 17 28 20 29 18 30 19 31 23 32 24 33 25 34
REMARK SMILES IDX 30 35 26 36 29 37 27 38 28 39
REMARK H PARENT 7 4 10 19
ROOT
ATOM      1  C   UNL     1       1.048  -0.454   0.311  1.00  0.00    +0.089 C 
ATOM      2  C   UNL     1      -0.296  -0.597   0.283  1.00  0.00    +0.043 C 
ENDROOT
BRANCH   1   3
ATOM      3  N   UNL     1       1.836   0.663   0.191  1.00  0.00    -0.462 N 
ATOM      4  H   UNL     1       1.390   1.569   0.054  1.00  0.00    +0.140 HD
BRANCH   3   5
ATOM      5  N   UNL     1       3.302   0.635   0.242  1.00  0.00    -0.560 NA
BRANCH   5   6
ATOM      6  C   UNL     1       3.907   1.823   0.079  1.00  0.00    +0.133 C 
ATOM      7  O   UNL     1       3.364   2.912  -0.113  1.00  0.00    -0.310 OA
BRANCH   6   8
ATOM      8  C   UNL     1       5.365   1.684   0.155  1.00  0.00    +0.157 A 
ATOM      9  C   UNL     1       6.246   0.617   0.370  1.00  0.00    +0.005 A 
ATOM     10  C   UNL     1       7.568   1.164   0.323  1.00  0.00    +0.024 A 
ATOM     11  O   UNL     1       6.101   2.836  -0.014  1.00  0.00    -0.454 OA
ATOM     12  C   UNL     1       8.877   0.659   0.457  1.00  0.00    +0.012 A 
ATOM     13  C   UNL     1       7.412   2.519   0.087  1.00  0.00    +0.135 A 
ATOM     14  C   UNL     1       9.962   1.541   0.345  1.00  0.00    +0.001 A 
ATOM     15  C   UNL     1       8.468   3.423  -0.030  1.00  0.00    +0.048 A 
ATOM     16  C   UNL     1       9.758   2.902   0.105  1.00  0.00    +0.004 A 
ATOM     17  C   UNL     1       5.891  -0.808   0.602  1.00  0.00    +0.049 C 
ENDBRANCH   6   8
ENDBRANCH   5   6
ENDBRANCH   3   5
ENDBRANCH   1   3
BRANCH   2  18
ATOM     18  N   UNL     1      -1.227   0.413   0.142  1.00  0.00    -0.456 N 
ATOM     19  H   UNL     1      -0.869   1.361   0.034  1.00  0.00    +0.141 HD
BRANCH  18  20
ATOM     20  N   UNL     1      -2.676   0.235  -0.042  1.00  0.00    -0.560 NA
BRANCH  20  21
ATOM     21  C   UNL     1      -3.405   1.361  -0.064  1.00  0.00    +0.133 C 
ATOM     22  O   UNL     1      -2.988   2.518  -0.001  1.00  0.00    -0.310 OA
BRANCH  21  23
ATOM     23  C   UNL     1      -4.834   1.051  -0.186  1.00  0.00    +0.157 A 
ATOM     24  O   UNL     1      -5.693   2.126  -0.244  1.00  0.00    -0.454 OA
ATOM     25  C   UNL     1      -5.584  -0.129  -0.261  1.00  0.00    +0.005 A 
ATOM     26  C   UNL     1      -6.955   1.652  -0.355  1.00  0.00    +0.135 A 
ATOM     27  C   UNL     1      -6.955   0.267  -0.370  1.00  0.00    +0.024 A 
ATOM     28  C   UNL     1      -8.103   2.438  -0.441  1.00  0.00    +0.048 A 
ATOM     29  C   UNL     1      -8.194  -0.396  -0.480  1.00  0.00    +0.012 A 
ATOM     30  C   UNL     1      -9.322   1.761  -0.550  1.00  0.00    +0.004 A 
ATOM     31  C   UNL     1      -9.369   0.366  -0.569  1.00  0.00    +0.001 A 
ATOM     32  C   UNL     1      -5.071  -1.525  -0.231  1.00  0.00    +0.049 C 
ENDBRANCH  21  23
ENDBRANCH  20  21
ENDBRANCH  18  20
ENDBRANCH   2  18
BRANCH   2  33
ATOM     33  C   UNL     1      -0.803  -1.982   0.446  1.00  0.00    -0.002 A 
ATOM     34  C   UNL     1      -0.648  -2.927  -0.578  1.00  0.00    +0.012 A 
ATOM     35  C   UNL     1      -1.448  -2.358   1.632  1.00  0.00    +0.012 A 
ATOM     36  C   UNL     1      -1.127  -4.229  -0.417  1.00  0.00    +0.021 A 
ATOM     37  C   UNL     1      -1.929  -3.659   1.798  1.00  0.00    +0.021 A 
ATOM     38  C   UNL     1      -1.764  -4.587   0.771  1.00  0.00    +0.041 A 
ATOM     39 Cl   UNL     1      -2.361  -6.192   0.968  1.00  0.00    -0.084 Cl
ENDBRANCH   2  33
TORSDOF 9
