REMARK SMILES O=C(Nc1cccc(-c2cn3ccnc3c(NCc3ccncc3)n2)c1)Nc1cc(C(F)(F)F)ccc1[O-]
REMARK SMILES IDX 4 1 5 2 6 3 7 4 8 5 26 6 3 7 1 8 2 9 27 10 28 13 29 14 37 15
REMARK SMILES IDX 30 16 36 17 35 18 38 19 31 20 32 21 33 22 34 23 9 24 10 25
REMARK SMILES IDX 25 26 11 27 16 28 12 29 15 30 17 31 13 32 14 33 18 35 19 36
REMARK SMILES IDX 20 37 24 38 21 39 23 40 22 41
REMARK H PARENT 3 11 27 12 17 34
ROOT
ATOM      1  C   UNL     1       1.734   0.438   1.922  1.00  0.00    +0.043 A 
ATOM      2  C   UNL     1       1.274   1.158   3.022  1.00  0.00    +0.026 A 
ATOM      3  C   UNL     1      -0.094   1.376   3.196  1.00  0.00    +0.003 A 
ATOM      4  C   UNL     1      -1.011   0.867   2.274  1.00  0.00    +0.010 A 
ATOM      5  C   UNL     1      -0.578   0.131   1.161  1.00  0.00    +0.004 A 
ATOM      6  C   UNL     1       0.804  -0.055   0.995  1.00  0.00    +0.036 A 
ENDROOT
BRANCH   1   7
ATOM      7  N   UNL     1       3.087   0.156   1.670  1.00  0.00    -0.308 N 
ATOM      8  O   UNL     1       4.193   1.156   3.413  1.00  0.00    -0.248 OA
ATOM      9  C   UNL     1       4.189   0.490   2.371  1.00  0.00    +0.323 C 
ATOM     10  N   UNL     1       5.409   0.092   1.916  1.00  0.00    -0.308 N 
ATOM     11  H   UNL     1       3.304  -0.418   0.841  1.00  0.00    +0.171 HD
ATOM     12  H   UNL     1       6.103   0.454   2.551  1.00  0.00    +0.171 HD
BRANCH  10  13
ATOM     13  C   UNL     1       5.927  -0.663   0.827  1.00  0.00    +0.035 A 
ATOM     14  C   UNL     1       7.345  -0.712   0.829  1.00  0.00    +0.038 A 
ATOM     15  C   UNL     1       5.193  -1.333  -0.193  1.00  0.00    -0.085 A 
ATOM     16  C   UNL     1       8.080  -1.400  -0.143  1.00  0.00    +0.058 A 
ATOM     17  C   UNL     1       5.982  -2.005  -1.159  1.00  0.00    -0.006 A 
ATOM     18  C   UNL     1       7.379  -2.044  -1.152  1.00  0.00    +0.012 A 
ATOM     19  O   UNL     1       3.923  -1.385  -0.311  1.00  0.00    -0.871 OA
BRANCH  16  20
ATOM     20  C   UNL     1       9.579  -1.405  -0.114  1.00  0.00    +0.416 C 
ATOM     21  F   UNL     1      10.123  -0.329  -0.754  1.00  0.00    -0.166 F 
ATOM     22  F   UNL     1      10.097  -1.377   1.149  1.00  0.00    -0.166 F 
ATOM     23  F   UNL     1      10.134  -2.501  -0.708  1.00  0.00    -0.166 F 
ENDBRANCH  16  20
ENDBRANCH  10  13
ENDBRANCH   1   7
BRANCH   5  24
ATOM     24  C   UNL     1      -1.571  -0.404   0.190  1.00  0.00    +0.089 C 
ATOM     25  C   UNL     1      -1.308  -1.544  -0.487  1.00  0.00    +0.122 C 
ATOM     26  N   UNL     1      -2.767   0.298   0.041  1.00  0.00    -0.226 NA
ATOM     27  N   UNL     1      -2.251  -2.014  -1.373  1.00  0.00    -0.302 N 
ATOM     28  C   UNL     1      -3.678  -0.134  -0.801  1.00  0.00    +0.170 C 
ATOM     29  C   UNL     1      -2.282  -3.108  -2.194  1.00  0.00    +0.113 A 
ATOM     30  C   UNL     1      -3.430  -1.349  -1.555  1.00  0.00    +0.180 A 
ATOM     31  N   UNL     1      -4.853   0.558  -0.965  1.00  0.00    -0.363 N 
ATOM     32  C   UNL     1      -3.501  -3.040  -2.836  1.00  0.00    +0.132 A 
ATOM     33  N   UNL     1      -4.220  -1.939  -2.431  1.00  0.00    -0.234 NA
ATOM     34  H   UNL     1      -5.513   0.183  -1.639  1.00  0.00    +0.162 HD
BRANCH  31  35
ATOM     35  C   UNL     1      -5.156   1.791  -0.294  1.00  0.00    +0.150 C 
BRANCH  35  36
ATOM     36  C   UNL     1      -6.526   2.265  -0.707  1.00  0.00    -0.026 A 
ATOM     37  C   UNL     1      -6.687   3.115  -1.806  1.00  0.00    +0.025 A 
ATOM     38  C   UNL     1      -7.668   1.827  -0.031  1.00  0.00    +0.025 A 
ATOM     39  C   UNL     1      -7.969   3.503  -2.162  1.00  0.00    +0.111 A 
ATOM     40  C   UNL     1      -8.907   2.271  -0.464  1.00  0.00    +0.111 A 
ATOM     41  N   UNL     1      -9.084   3.104  -1.512  1.00  0.00    -0.265 NA
ENDBRANCH  35  36
ENDBRANCH  31  35
ENDBRANCH   5  24
TORSDOF 6
