REMARK SMILES CS(=O)(=O)Nc1ccc(-c2ccnc(Nc3ccc(N4CCC(O)CC4)cc3)n2)cc1
REMARK SMILES IDX 10 1 11 2 12 3 13 4 14 5 29 6 9 7 6 8 7 9 31 10 8 11 30 12
REMARK SMILES IDX 5 13 2 15 3 16 4 17 1 18 15 19 16 21 17 22 28 23 18 24 27 25
REMARK SMILES IDX 19 26 20 27 21 28 26 29 22 30 25 31 23 32 24 33
REMARK H PARENT 5 14 15 20 24 34
ROOT
ATOM      1  C   UNL     1       3.280  -1.443   0.441  1.00  0.00    +0.076 A 
ATOM      2  C   UNL     1       3.044  -2.590   1.168  1.00  0.00    +0.049 A 
ATOM      3  C   UNL     1       1.727  -2.881   1.419  1.00  0.00    +0.117 A 
ATOM      4  N   UNL     1       0.706  -2.117   0.999  1.00  0.00    -0.221 NA
ATOM      5  C   UNL     1       1.008  -1.020   0.292  1.00  0.00    +0.227 A 
ATOM      6  N   UNL     1       2.268  -0.662  -0.001  1.00  0.00    -0.213 NA
ENDROOT
BRANCH   1   7
ATOM      7  C   UNL     1       4.639  -0.984   0.086  1.00  0.00    +0.000 A 
ATOM      8  C   UNL     1       7.227  -0.074  -0.625  1.00  0.00    +0.048 A 
ATOM      9  C   UNL     1       7.013  -0.698   0.603  1.00  0.00    +0.027 A 
ATOM     10  C   UNL     1       6.164   0.080  -1.508  1.00  0.00    +0.027 A 
ATOM     11  C   UNL     1       5.732  -1.142   0.956  1.00  0.00    +0.012 A 
ATOM     12  C   UNL     1       4.885  -0.362  -1.151  1.00  0.00    +0.012 A 
BRANCH   8  13
ATOM     13  N   UNL     1       8.544   0.361  -0.944  1.00  0.00    -0.284 N 
ATOM     14  H   UNL     1       9.316  -0.028  -0.404  1.00  0.00    +0.180 HD
BRANCH  13  15
ATOM     15  S   UNL     1       8.836   1.951  -1.409  1.00  0.00    +0.229 S 
ATOM     16  O   UNL     1      10.277   2.089  -1.425  1.00  0.00    -0.207 OA
ATOM     17  O   UNL     1       8.040   2.283  -2.569  1.00  0.00    -0.207 OA
ATOM     18  C   UNL     1       8.228   2.880  -0.013  1.00  0.00    +0.183 C 
ENDBRANCH  13  15
ENDBRANCH   8  13
ENDBRANCH   1   7
BRANCH   5  19
ATOM     19  N   UNL     1       0.030  -0.158  -0.194  1.00  0.00    -0.324 N 
ATOM     20  H   UNL     1       0.479   0.598  -0.689  1.00  0.00    +0.170 HD
BRANCH  19  21
ATOM     21  C   UNL     1      -1.366  -0.136  -0.137  1.00  0.00    +0.041 A 
ATOM     22  C   UNL     1      -2.141  -1.107   0.495  1.00  0.00    +0.028 A 
ATOM     23  C   UNL     1      -2.048   0.922  -0.750  1.00  0.00    +0.028 A 
ATOM     24  C   UNL     1      -3.543  -1.025   0.516  1.00  0.00    +0.028 A 
ATOM     25  C   UNL     1      -3.448   1.003  -0.725  1.00  0.00    +0.028 A 
ATOM     26  C   UNL     1      -4.230   0.035  -0.086  1.00  0.00    +0.037 A 
BRANCH  26  27
ATOM     27  N   UNL     1      -5.620   0.136  -0.079  1.00  0.00    -0.371 N 
ATOM     28  C   UNL     1      -6.429  -1.075   0.075  1.00  0.00    +0.119 C 
ATOM     29  C   UNL     1      -6.195   1.388   0.432  1.00  0.00    +0.119 C 
ATOM     30  C   UNL     1      -7.827  -0.859  -0.493  1.00  0.00    +0.053 C 
ATOM     31  C   UNL     1      -7.593   1.604  -0.133  1.00  0.00    +0.053 C 
ATOM     32  C   UNL     1      -8.471   0.383   0.109  1.00  0.00    +0.118 C 
BRANCH  32  33
ATOM     33  O   UNL     1      -9.746   0.611  -0.486  1.00  0.00    -0.393 OA
ATOM     34  H   UNL     1     -10.280  -0.192  -0.362  1.00  0.00    +0.210 HD
ENDBRANCH  32  33
ENDBRANCH  26  27
ENDBRANCH  19  21
ENDBRANCH   5  19
TORSDOF 7
