REMARK SMILES O=C(Nc1cccc(-c2cn3ccnc3c(NCc3ccc(C(=O)[O-])cc3)n2)c1)Nc1cccc(C(F)(F)F)c1
REMARK SMILES IDX 9 1 10 2 11 3 12 4 13 5 14 6 15 7 16 8 17 9 28 10 8 12 4 13
REMARK SMILES IDX 5 14 29 15 6 16 7 17 3 18 1 19 2 20 30 21 31 24 32 25 40 26
REMARK SMILES IDX 33 27 35 28 34 29 36 30 37 31 38 32 39 33 18 34 19 35 20 36
REMARK SMILES IDX 27 37 21 38 26 39 22 40 23 41 24 42 25 43
REMARK H PARENT 17 11 3 22 30 23
ROOT
ATOM      1  C   UNL     1      -1.178   1.529   2.853  1.00  0.00    +0.089 C 
ATOM      2  C   UNL     1      -1.678   1.685   4.097  1.00  0.00    +0.122 C 
ATOM      3  N   UNL     1      -3.040   1.563   4.273  1.00  0.00    -0.302 N 
ATOM      4  C   UNL     1      -3.836   1.666   5.381  1.00  0.00    +0.113 A 
ATOM      5  C   UNL     1      -5.117   1.441   4.923  1.00  0.00    +0.132 A 
ATOM      6  N   UNL     1      -5.127   1.202   3.570  1.00  0.00    -0.234 NA
ATOM      7  C   UNL     1      -3.860   1.282   3.217  1.00  0.00    +0.180 A 
ATOM      8  C   UNL     1      -3.279   1.107   1.897  1.00  0.00    +0.170 C 
ATOM      9  N   UNL     1      -4.066   0.805   0.815  1.00  0.00    -0.363 N 
ATOM     10  N   UNL     1      -1.978   1.235   1.753  1.00  0.00    -0.226 NA
ATOM     11  H   UNL     1      -5.066   0.709   0.968  1.00  0.00    +0.162 HD
ENDROOT
BRANCH   1  12
ATOM     12  C   UNL     1       0.285   1.620   2.614  1.00  0.00    +0.004 A 
ATOM     13  C   UNL     1       2.247   0.841   1.361  1.00  0.00    +0.043 A 
ATOM     14  C   UNL     1       3.044   1.739   2.068  1.00  0.00    +0.026 A 
ATOM     15  C   UNL     1       0.873   0.793   1.639  1.00  0.00    +0.036 A 
ATOM     16  C   UNL     1       2.477   2.579   3.029  1.00  0.00    +0.003 A 
ATOM     17  C   UNL     1       1.108   2.525   3.297  1.00  0.00    +0.010 A 
BRANCH  13  18
ATOM     18  N   UNL     1       2.724  -0.024   0.354  1.00  0.00    -0.308 N 
ATOM     19  O   UNL     1       5.017   0.292   0.473  1.00  0.00    -0.248 OA
ATOM     20  C   UNL     1       4.036  -0.215  -0.055  1.00  0.00    +0.323 C 
ATOM     21  N   UNL     1       4.077  -1.067  -1.152  1.00  0.00    -0.308 N 
ATOM     22  H   UNL     1       2.023  -0.597  -0.090  1.00  0.00    +0.171 HD
ATOM     23  H   UNL     1       3.187  -1.316  -1.556  1.00  0.00    +0.171 HD
BRANCH  21  24
ATOM     24  C   UNL     1       5.215  -1.572  -1.814  1.00  0.00    +0.043 A 
ATOM     25  C   UNL     1       4.992  -2.356  -2.953  1.00  0.00    +0.026 A 
ATOM     26  C   UNL     1       6.529  -1.345  -1.400  1.00  0.00    +0.039 A 
ATOM     27  C   UNL     1       6.061  -2.896  -3.670  1.00  0.00    +0.003 A 
ATOM     28  C   UNL     1       7.617  -1.888  -2.110  1.00  0.00    +0.058 A 
ATOM     29  C   UNL     1       7.369  -2.661  -3.253  1.00  0.00    +0.013 A 
BRANCH  28  30
ATOM     30  C   UNL     1       9.027  -1.612  -1.651  1.00  0.00    +0.416 C 
ATOM     31  F   UNL     1       9.949  -2.443  -2.217  1.00  0.00    -0.166 F 
ATOM     32  F   UNL     1       9.437  -0.349  -1.952  1.00  0.00    -0.166 F 
ATOM     33  F   UNL     1       9.188  -1.751  -0.306  1.00  0.00    -0.166 F 
ENDBRANCH  28  30
ENDBRANCH  21  24
ENDBRANCH  13  18
ENDBRANCH   1  12
BRANCH   9  34
ATOM     34  C   UNL     1      -3.574   0.649  -0.528  1.00  0.00    +0.150 C 
BRANCH  34  35
ATOM     35  C   UNL     1      -4.663   0.121  -1.423  1.00  0.00    -0.029 A 
ATOM     36  C   UNL     1      -5.427   0.992  -2.210  1.00  0.00    +0.006 A 
ATOM     37  C   UNL     1      -4.944  -1.251  -1.462  1.00  0.00    +0.006 A 
ATOM     38  C   UNL     1      -6.433   0.493  -3.043  1.00  0.00    +0.010 A 
ATOM     39  C   UNL     1      -5.951  -1.745  -2.297  1.00  0.00    +0.010 A 
ATOM     40  C   UNL     1      -6.707  -0.882  -3.105  1.00  0.00    -0.003 A 
BRANCH  40  41
ATOM     41  C   UNL     1      -7.791  -1.422  -4.020  1.00  0.00    +0.071 C 
ATOM     42  O   UNL     1      -8.435  -0.575  -4.717  1.00  0.00    -0.545 OA
ATOM     43  O   UNL     1      -7.970  -2.681  -4.025  1.00  0.00    -0.545 OA
ENDBRANCH  40  41
ENDBRANCH  34  35
ENDBRANCH   9  34
TORSDOF 7
