REMARK SMILES C[C@@H](O[C@H]1OCC[NH+](Cc2nc(=O)n(P(=O)([O-])[O-])[n-]2)[C@H]1c1ccc(F)cc1)c1cc(C(F)(F)F)cc(C(F)(F)F)c1
REMARK SMILES IDX 4 1 5 2 6 3 7 4 8 5 20 6 3 8 2 9 1 10 28 11 29 12 41 13
REMARK SMILES IDX 30 14 36 15 35 16 31 17 32 18 33 19 34 20 37 21 38 22 39 23
REMARK SMILES IDX 40 24 21 25 22 26 27 27 23 28 26 29 24 30 25 31 9 32 10 33
REMARK SMILES IDX 11 34 19 35 12 36 14 37 13 38 15 39 16 40 17 41 18 42
REMARK H PARENT 8 7
ROOT
ATOM      1  C   UNL     1       0.806   0.020   2.166  1.00  0.00    +0.315 C 
ATOM      2  O   UNL     1       1.100  -0.944   3.225  1.00  0.00    -0.341 OA
ATOM      3  C   UNL     1       2.486  -1.307   3.160  1.00  0.00    +0.225 C 
ATOM      4  C   UNL     1       2.819  -2.056   1.864  1.00  0.00    +0.292 C 
ATOM      5  N   UNL     1       2.416  -1.285   0.676  1.00  0.00    -0.319 N 
ATOM      6  C   UNL     1       1.032  -0.639   0.736  1.00  0.00    +0.272 C 
ATOM      7  H   UNL     1       3.023  -0.391   0.777  1.00  0.00    +0.349 HD
ENDROOT
BRANCH   1   8
ATOM      8  O   UNL     1      -0.548   0.461   2.389  1.00  0.00    -0.339 OA
BRANCH   8   9
ATOM      9  C   UNL     1      -0.807   1.740   1.790  1.00  0.00    +0.148 C 
ATOM     10  C   UNL     1      -1.587   2.566   2.815  1.00  0.00    +0.044 C 
BRANCH   9  11
ATOM     11  C   UNL     1      -1.629   1.550   0.528  1.00  0.00    -0.018 A 
ATOM     12  C   UNL     1      -1.229   2.163  -0.671  1.00  0.00    +0.019 A 
ATOM     13  C   UNL     1      -2.787   0.753   0.532  1.00  0.00    +0.019 A 
ATOM     14  C   UNL     1      -1.974   2.005  -1.847  1.00  0.00    +0.056 A 
ATOM     15  C   UNL     1      -3.534   0.555  -0.636  1.00  0.00    +0.056 A 
ATOM     16  C   UNL     1      -3.122   1.194  -1.817  1.00  0.00    +0.026 A 
BRANCH  14  17
ATOM     17  C   UNL     1      -1.551   2.668  -3.138  1.00  0.00    +0.416 C 
ATOM     18  F   UNL     1      -2.650   3.063  -3.862  1.00  0.00    -0.166 F 
ATOM     19  F   UNL     1      -0.815   3.798  -2.991  1.00  0.00    -0.166 F 
ATOM     20  F   UNL     1      -0.876   1.835  -3.974  1.00  0.00    -0.166 F 
ENDBRANCH  14  17
BRANCH  15  21
ATOM     21  C   UNL     1      -4.765  -0.310  -0.627  1.00  0.00    +0.416 C 
ATOM     22  F   UNL     1      -4.830  -1.180   0.421  1.00  0.00    -0.166 F 
ATOM     23  F   UNL     1      -4.891  -1.076  -1.749  1.00  0.00    -0.166 F 
ATOM     24  F   UNL     1      -5.913   0.425  -0.561  1.00  0.00    -0.166 F 
ENDBRANCH  15  21
ENDBRANCH   9  11
ENDBRANCH   8   9
ENDBRANCH   1   8
BRANCH   6  25
ATOM     25  C   UNL     1      -0.070  -1.638   0.319  1.00  0.00    +0.015 A 
ATOM     26  C   UNL     1      -0.515  -1.636  -1.020  1.00  0.00    +0.013 A 
ATOM     27  C   UNL     1      -0.647  -2.564   1.204  1.00  0.00    +0.013 A 
ATOM     28  C   UNL     1      -1.498  -2.525  -1.458  1.00  0.00    +0.040 A 
ATOM     29  C   UNL     1      -1.635  -3.451   0.768  1.00  0.00    +0.040 A 
ATOM     30  C   UNL     1      -2.049  -3.425  -0.558  1.00  0.00    +0.123 A 
ATOM     31  F   UNL     1      -2.995  -4.280  -0.970  1.00  0.00    -0.207 F 
ENDBRANCH   6  25
BRANCH   5  32
ATOM     32  C   UNL     1       2.882  -1.798  -0.665  1.00  0.00    +0.292 C 
BRANCH  32  33
ATOM     33  C   UNL     1       3.193  -0.613  -1.515  1.00  0.00    -0.007 C 
ATOM     34  N   UNL     1       2.320   0.080  -2.178  1.00  0.00    -0.382 NA
ATOM     35  N   UNL     1       4.379  -0.068  -1.281  1.00  0.00    -0.366 NA
ATOM     36  C   UNL     1       2.843   1.374  -2.183  1.00  0.00    +0.248 C 
ATOM     37  N   UNL     1       3.976   1.382  -1.319  1.00  0.00    -0.294 N 
ATOM     38  O   UNL     1       2.462   2.281  -2.914  1.00  0.00    -0.273 OA
BRANCH  37  39
ATOM     39  P   UNL     1       3.471   1.999   0.300  1.00  0.00    +0.031 P 
ATOM     40  O   UNL     1       3.642   0.771   1.211  1.00  0.00    -0.333 OA
ATOM     41  O   UNL     1       4.395   3.150   0.618  1.00  0.00    -0.795 OA
ATOM     42  O   UNL     1       1.993   2.319   0.194  1.00  0.00    -0.795 OA
ENDBRANCH  37  39
ENDBRANCH  32  33
ENDBRANCH   5  32
TORSDOF 9
