REMARK SMILES CC(C)(C#N)NC(=O)c1ccc(-c2ccnc(Nc3ccc(N4CCOCC4)cc3)n2)cc1
REMARK SMILES IDX 9 1 10 2 11 3 12 4 32 5 33 6 7 7 6 8 8 9 2 11 4 12 5 13 1 14
REMARK SMILES IDX 3 15 13 16 14 17 31 18 15 19 17 20 16 21 18 22 19 24 20 25
REMARK SMILES IDX 30 26 21 27 29 28 22 29 23 30 24 31 28 32 25 33 27 34 26 35
REMARK H PARENT 6 10 18 23
ROOT
ATOM      1  C   UNL     1       5.311   0.405   0.156  1.00  0.00    +0.039 A 
ATOM      2  C   UNL     1       4.253   1.112  -0.420  1.00  0.00    +0.014 A 
ATOM      3  C   UNL     1       2.941   0.894   0.016  1.00  0.00    +0.011 A 
ATOM      4  C   UNL     1       2.646  -0.035   1.031  1.00  0.00    +0.000 A 
ATOM      5  C   UNL     1       3.725  -0.754   1.580  1.00  0.00    +0.011 A 
ATOM      6  C   UNL     1       5.042  -0.542   1.149  1.00  0.00    +0.014 A 
ENDROOT
BRANCH   1   7
ATOM      7  C   UNL     1       6.691   0.667  -0.341  1.00  0.00    +0.252 C 
ATOM      8  N   UNL     1       7.711   0.482   0.564  1.00  0.00    -0.334 N 
ATOM      9  O   UNL     1       6.863   1.054  -1.489  1.00  0.00    -0.269 OA
ATOM     10  H   UNL     1       7.476   0.276   1.527  1.00  0.00    +0.165 HD
BRANCH   8  11
ATOM     11  C   UNL     1       9.139   0.683   0.255  1.00  0.00    +0.122 C 
ATOM     12  C   UNL     1       9.931   0.348   1.473  1.00  0.00    +0.090 C 
ATOM     13  N   UNL     1      10.507   0.078   2.445  1.00  0.00    -0.196 NA
ATOM     14  C   UNL     1       9.600  -0.248  -0.879  1.00  0.00    +0.051 C 
ATOM     15  C   UNL     1       9.424   2.149  -0.109  1.00  0.00    +0.051 C 
ENDBRANCH   8  11
ENDBRANCH   1   7
BRANCH   4  16
ATOM     16  C   UNL     1       1.253  -0.248   1.476  1.00  0.00    +0.076 A 
ATOM     17  C   UNL     1       0.921  -0.558   2.778  1.00  0.00    +0.049 A 
ATOM     18  N   UNL     1       0.307  -0.108   0.519  1.00  0.00    -0.213 NA
ATOM     19  C   UNL     1      -0.417  -0.723   3.035  1.00  0.00    +0.117 A 
ATOM     20  C   UNL     1      -0.980  -0.292   0.856  1.00  0.00    +0.227 A 
ATOM     21  N   UNL     1      -1.371  -0.599   2.100  1.00  0.00    -0.221 NA
BRANCH  20  22
ATOM     22  N   UNL     1      -1.883  -0.141  -0.191  1.00  0.00    -0.324 N 
ATOM     23  H   UNL     1      -1.372   0.075  -1.033  1.00  0.00    +0.170 HD
BRANCH  22  24
ATOM     24  C   UNL     1      -3.273  -0.228  -0.299  1.00  0.00    +0.041 A 
ATOM     25  C   UNL     1      -4.126  -0.512   0.766  1.00  0.00    +0.028 A 
ATOM     26  C   UNL     1      -3.866  -0.025  -1.550  1.00  0.00    +0.028 A 
ATOM     27  C   UNL     1      -5.519  -0.586   0.588  1.00  0.00    +0.028 A 
ATOM     28  C   UNL     1      -5.256  -0.097  -1.723  1.00  0.00    +0.028 A 
ATOM     29  C   UNL     1      -6.121  -0.371  -0.657  1.00  0.00    +0.037 A 
BRANCH  29  30
ATOM     30  N   UNL     1      -7.495  -0.446  -0.853  1.00  0.00    -0.367 N 
ATOM     31  C   UNL     1      -8.353  -1.125   0.133  1.00  0.00    +0.145 C 
ATOM     32  C   UNL     1      -8.158   0.667  -1.561  1.00  0.00    +0.145 C 
ATOM     33  C   UNL     1      -9.711  -1.481  -0.491  1.00  0.00    +0.181 C 
ATOM     34  C   UNL     1      -9.529   0.224  -2.095  1.00  0.00    +0.181 C 
ATOM     35  O   UNL     1     -10.353  -0.329  -1.057  1.00  0.00    -0.378 OA
ENDBRANCH  29  30
ENDBRANCH  22  24
ENDBRANCH  20  22
ENDBRANCH   4  16
TORSDOF 6
