REMARK SMILES Cc1nc2c([n-]1)-c1ccccc1N(C(=O)c1ccc(NC(=O)c3ccccc3-c3ccccc3)cc1)CC2
REMARK SMILES IDX 14 1 15 2 13 3 12 4 7 5 8 6 9 7 11 8 10 9 5 10 2 11 3 12
REMARK SMILES IDX 6 13 4 14 1 15 38 16 37 18 16 20 17 21 36 22 18 23 35 24
REMARK SMILES IDX 19 25 20 26 21 27 22 28 23 30 24 31 28 32 25 33 27 34 26 35
REMARK SMILES IDX 29 36 30 37 34 38 31 39 33 40 32 41
REMARK H PARENT 20 29
REMARK Flexibility Score:  137.900
ROOT
ATOM      1  C   UNL     1      -2.368  -2.292   0.821  1.00  0.00    +0.258 C 
ATOM      2  O   UNL     1      -2.918  -3.387   0.726  1.00  0.00    -0.269 OA
ENDROOT
BRANCH   1   3
ATOM      3  N   UNL     1      -2.970  -1.045   1.085  1.00  0.00    -0.307 N 
BRANCH   3   4
ATOM      4  C   UNL     1      -4.402  -0.919   1.237  1.00  0.00    +0.051 A 
ATOM      5  C   UNL     1      -5.154   0.214   0.847  1.00  0.00    +0.001 A 
ATOM      6  C   UNL     1      -6.544   0.253   1.085  1.00  0.00    +0.010 A 
ATOM      7  C   UNL     1      -7.207  -0.805   1.698  1.00  0.00    +0.001 A 
ATOM      8  C   UNL     1      -5.107  -1.976   1.852  1.00  0.00    +0.027 A 
ATOM      9  C   UNL     1      -6.486  -1.925   2.080  1.00  0.00    +0.002 A 
BRANCH   5  10
ATOM     10  C   UNL     1      -4.585   1.474   0.062  1.00  0.00    -0.033 A 
ATOM     11  C   UNL     1      -4.505   3.387  -0.996  1.00  0.00    -0.085 A 
ATOM     12  N   UNL     1      -3.241   2.922  -0.976  1.00  0.00    -0.443 NA
ATOM     13  N   UNL     1      -5.329   2.534  -0.357  1.00  0.00    -0.440 NA
ATOM     14  C   UNL     1      -3.277   1.736  -0.320  1.00  0.00    -0.059 A 
ATOM     15  C   UNL     1      -4.923   4.658  -1.601  1.00  0.00    +0.034 C 
BRANCH  14  16
ATOM     16  C   UNL     1      -2.050   0.971  -0.072  1.00  0.00    +0.053 CG0
ATOM     17  G   UNL     1      -2.179   0.193   1.224  1.00  0.00    +0.000 G0
ENDBRANCH  14  16
ENDBRANCH   5  10
ENDBRANCH   3   4
BRANCH   3  18
ATOM     18  C   UNL     1      -2.179   0.193   1.224  1.00  0.00    +0.130 CG0
ATOM     19  G   UNL     1      -2.050   0.971  -0.072  1.00  0.00    +0.000 G0
ENDBRANCH   3  18
ENDBRANCH   1   3
BRANCH   1  20
ATOM     20  C   UNL     1      -0.915  -2.308   0.565  1.00  0.00    +0.040 A 
ATOM     21  C   UNL     1      -0.015  -2.504   1.614  1.00  0.00    +0.016 A 
ATOM     22  C   UNL     1      -0.460  -2.097  -0.736  1.00  0.00    +0.016 A 
ATOM     23  C   UNL     1       1.358  -2.401   1.370  1.00  0.00    +0.027 A 
ATOM     24  C   UNL     1       0.910  -1.993  -0.971  1.00  0.00    +0.027 A 
ATOM     25  C   UNL     1       1.826  -2.115   0.084  1.00  0.00    +0.041 A 
BRANCH  25  26
ATOM     26  N   UNL     1       3.174  -1.856  -0.224  1.00  0.00    -0.322 N 
ATOM     27  C   UNL     1       4.242  -1.790   0.647  1.00  0.00    +0.256 C 
ATOM     28  O   UNL     1       4.281  -2.191   1.804  1.00  0.00    -0.269 OA
ATOM     29  H   UNL     1       3.353  -1.584  -1.183  1.00  0.00    +0.170 HD
BRANCH  27  30
ATOM     30  C   UNL     1       5.476  -1.183   0.068  1.00  0.00    +0.048 A 
ATOM     31  C   UNL     1       6.676  -1.878   0.293  1.00  0.00    +0.014 A 
ATOM     32  C   UNL     1       5.473   0.034  -0.655  1.00  0.00    -0.006 A 
ATOM     33  C   UNL     1       7.878  -1.395  -0.222  1.00  0.00    +0.001 A 
ATOM     34  C   UNL     1       6.702   0.495  -1.165  1.00  0.00    +0.009 A 
ATOM     35  C   UNL     1       7.890  -0.212  -0.954  1.00  0.00    +0.001 A 
BRANCH  32  36
ATOM     36  C   UNL     1       4.261   0.847  -0.876  1.00  0.00    -0.018 A 
ATOM     37  C   UNL     1       3.533   1.373   0.205  1.00  0.00    +0.009 A 
ATOM     38  C   UNL     1       3.781   1.083  -2.176  1.00  0.00    +0.009 A 
ATOM     39  C   UNL     1       2.347   2.081  -0.006  1.00  0.00    +0.001 A 
ATOM     40  C   UNL     1       2.596   1.794  -2.386  1.00  0.00    +0.001 A 
ATOM     41  C   UNL     1       1.876   2.286  -1.300  1.00  0.00    +0.000 A 
ENDBRANCH  32  36
ENDBRANCH  27  30
ENDBRANCH  25  26
ENDBRANCH   1  20
TORSDOF 5
