REMARK SMILES CC(=O)O[C@H]1CC[C@H]2[C@@H]3CC[C@H]4Cc5c(C#N)c(N)n(-c6ccccc6)c(=S)c5C[C@]4(C)[C@H]3CC[C@]12C
REMARK SMILES IDX 5 1 6 2 7 3 8 4 9 5 10 6 11 7 12 8 13 9 14 10 15 11 16 12
REMARK SMILES IDX 17 13 18 14 20 15 27 16 28 17 29 18 30 19 31 20 32 21 33 22
REMARK SMILES IDX 34 23 35 24 36 25 37 26 4 27 2 28 3 29 1 30 21 31 22 32
REMARK SMILES IDX 26 33 23 34 25 35 24 36 19 37
REMARK H PARENT 19 38 19 39
ROOT
ATOM      1  C   UNL     1       5.584  -0.286  -0.161  1.00  0.00    +0.182 C 
ATOM      2  C   UNL     1       6.087   1.061   0.406  1.00  0.00    +0.046 C 
ATOM      3  C   UNL     1       4.835   1.876   0.774  1.00  0.00    +0.008 C 
ATOM      4  C   UNL     1       3.687   0.888   0.594  1.00  0.00    +0.002 C 
ATOM      5  C   UNL     1       2.262   1.432   0.439  1.00  0.00    -0.004 C 
ATOM      6  C   UNL     1       1.872   2.325   1.625  1.00  0.00    +0.004 C 
ATOM      7  C   UNL     1       0.420   2.784   1.548  1.00  0.00    +0.005 C 
ATOM      8  C   UNL     1      -0.540   1.596   1.409  1.00  0.00    -0.000 C 
ATOM      9  C   UNL     1      -2.002   2.071   1.405  1.00  0.00    +0.041 C 
ATOM     10  C   UNL     1      -3.012   0.989   1.060  1.00  0.00    -0.020 C 
ATOM     11  C   UNL     1      -4.425   1.307   1.235  1.00  0.00    +0.096 C 
ATOM     12  C   UNL     1      -4.780   2.608   1.720  1.00  0.00    +0.103 C 
ATOM     13  N   UNL     1      -5.078   3.662   2.107  1.00  0.00    -0.192 NA
ATOM     14  C   UNL     1      -5.401   0.432   0.887  1.00  0.00    +0.127 C 
ATOM     15  N   UNL     1      -5.037  -0.854   0.420  1.00  0.00    -0.286 N 
ATOM     16  C   UNL     1      -3.679  -1.283   0.329  1.00  0.00    +0.115 C 
ATOM     17  S   UNL     1      -3.217  -2.903   0.034  1.00  0.00    -0.059 S 
ATOM     18  C   UNL     1      -2.631  -0.209   0.575  1.00  0.00    -0.007 C 
ATOM     19  C   UNL     1      -1.175  -0.529   0.268  1.00  0.00    +0.046 C 
ATOM     20  C   UNL     1      -0.217   0.696   0.187  1.00  0.00    -0.022 C 
ATOM     21  C   UNL     1      -0.467   1.433  -1.155  1.00  0.00    +0.012 C 
ATOM     22  C   UNL     1       1.280   0.226   0.305  1.00  0.00    -0.001 C 
ATOM     23  C   UNL     1       1.726  -0.772  -0.795  1.00  0.00    +0.005 C 
ATOM     24  C   UNL     1       3.202  -1.192  -0.680  1.00  0.00    +0.011 C 
ATOM     25  C   UNL     1       4.135   0.025  -0.603  1.00  0.00    +0.008 C 
ATOM     26  C   UNL     1       4.133   0.762  -1.966  1.00  0.00    +0.015 C 
ENDROOT
BRANCH   1  27
ATOM     27  O   UNL     1       6.437  -0.692  -1.235  1.00  0.00    -0.462 OA
BRANCH  27  28
ATOM     28  C   UNL     1       6.521  -2.031  -1.460  1.00  0.00    +0.302 C 
ATOM     29  O   UNL     1       5.950  -2.903  -0.821  1.00  0.00    -0.253 OA
ATOM     30  C   UNL     1       7.428  -2.294  -2.624  1.00  0.00    +0.139 C 
ENDBRANCH  27  28
ENDBRANCH   1  27
BRANCH  15  31
ATOM     31  C   UNL     1      -6.079  -1.787   0.077  1.00  0.00    +0.048 A 
ATOM     32  C   UNL     1      -6.269  -2.170  -1.257  1.00  0.00    +0.027 A 
ATOM     33  C   UNL     1      -6.939  -2.281   1.069  1.00  0.00    +0.027 A 
ATOM     34  C   UNL     1      -7.303  -3.047  -1.592  1.00  0.00    +0.002 A 
ATOM     35  C   UNL     1      -7.970  -3.158   0.729  1.00  0.00    +0.002 A 
ATOM     36  C   UNL     1      -8.150  -3.540  -0.600  1.00  0.00    +0.000 A 
ENDBRANCH  15  31
BRANCH  14  37
ATOM     37  N   UNL     1      -6.734   0.794   0.957  1.00  0.00    -0.384 N 
ATOM     38  H   UNL     1      -7.029   1.713   1.266  1.00  0.00    +0.158 HD
ATOM     39  H   UNL     1      -7.434   0.182   0.555  1.00  0.00    +0.158 HD
ENDBRANCH  14  37
TORSDOF 4
