REMARK SMILES N#CCC(=O)Nc1ccc(-c2ccnc(Nc3ccc(N4CCOCC4)cc3)n2)cc1
REMARK SMILES IDX 11 1 12 2 13 3 14 4 15 5 29 6 10 7 7 8 8 9 31 10 9 11 30 12
REMARK SMILES IDX 6 13 4 14 5 15 3 17 1 18 2 19 16 20 17 22 18 23 28 24 19 25
REMARK SMILES IDX 27 26 20 27 21 28 22 29 26 30 23 31 25 32 24 33
REMARK H PARENT 6 16 16 21
ROOT
ATOM      1  C   UNL     1      -2.076  -2.238  -1.879  1.00  0.00    +0.076 A 
ATOM      2  C   UNL     1      -2.532  -3.342  -2.568  1.00  0.00    +0.049 A 
ATOM      3  C   UNL     1      -1.645  -4.381  -2.694  1.00  0.00    +0.117 A 
ATOM      4  N   UNL     1      -0.400  -4.360  -2.191  1.00  0.00    -0.221 NA
ATOM      5  C   UNL     1      -0.024  -3.252  -1.533  1.00  0.00    +0.227 A 
ATOM      6  N   UNL     1      -0.829  -2.195  -1.358  1.00  0.00    -0.213 NA
ENDROOT
BRANCH   1   7
ATOM      7  C   UNL     1      -2.905  -1.037  -1.642  1.00  0.00    +0.000 A 
ATOM      8  C   UNL     1      -4.491   1.279  -1.150  1.00  0.00    +0.041 A 
ATOM      9  C   UNL     1      -4.652   0.542  -2.322  1.00  0.00    +0.027 A 
ATOM     10  C   UNL     1      -3.530   0.860  -0.226  1.00  0.00    +0.027 A 
ATOM     11  C   UNL     1      -3.870  -0.597  -2.564  1.00  0.00    +0.012 A 
ATOM     12  C   UNL     1      -2.750  -0.277  -0.471  1.00  0.00    +0.012 A 
BRANCH   8  13
ATOM     13  N   UNL     1      -5.233   2.436  -0.830  1.00  0.00    -0.325 N 
ATOM     14  C   UNL     1      -6.252   3.014  -1.573  1.00  0.00    +0.238 C 
ATOM     15  O   UNL     1      -6.702   2.599  -2.637  1.00  0.00    -0.274 OA
ATOM     16  H   UNL     1      -4.997   2.865   0.057  1.00  0.00    +0.169 HD
BRANCH  14  17
ATOM     17  C   UNL     1      -6.801   4.280  -0.954  1.00  0.00    +0.220 C 
ATOM     18  N   UNL     1      -8.544   3.713   0.919  1.00  0.00    -0.198 NA
ATOM     19  C   UNL     1      -7.789   3.951   0.071  1.00  0.00    +0.072 C 
ENDBRANCH  14  17
ENDBRANCH   8  13
ENDBRANCH   1   7
BRANCH   5  20
ATOM     20  N   UNL     1       1.271  -3.285  -1.024  1.00  0.00    -0.324 N 
ATOM     21  H   UNL     1       1.681  -4.182  -1.237  1.00  0.00    +0.170 HD
BRANCH  20  22
ATOM     22  C   UNL     1       2.070  -2.366  -0.341  1.00  0.00    +0.041 A 
ATOM     23  C   UNL     1       1.702  -1.048  -0.083  1.00  0.00    +0.028 A 
ATOM     24  C   UNL     1       3.314  -2.782   0.142  1.00  0.00    +0.028 A 
ATOM     25  C   UNL     1       2.548  -0.178   0.625  1.00  0.00    +0.028 A 
ATOM     26  C   UNL     1       4.157  -1.909   0.849  1.00  0.00    +0.028 A 
ATOM     27  C   UNL     1       3.799  -0.581   1.111  1.00  0.00    +0.037 A 
BRANCH  27  28
ATOM     28  N   UNL     1       4.628   0.278   1.806  1.00  0.00    -0.367 N 
ATOM     29  C   UNL     1       4.121   1.493   2.461  1.00  0.00    +0.145 C 
ATOM     30  C   UNL     1       6.074   0.038   1.934  1.00  0.00    +0.145 C 
ATOM     31  C   UNL     1       5.028   1.872   3.644  1.00  0.00    +0.181 C 
ATOM     32  C   UNL     1       6.815   1.372   2.128  1.00  0.00    +0.181 C 
ATOM     33  O   UNL     1       6.395   2.115   3.282  1.00  0.00    -0.378 OA
ENDBRANCH  27  28
ENDBRANCH  20  22
ENDBRANCH   5  20
TORSDOF 6
