REMARK SMILES C/C=C(\C)C(=O)O[C@@H]1[C@@H]2OC[C@]3(C)[C@H](OC(C)=O)C[C@H](O)[C@@](C)([C@@H]23)[C@H]2C[C@H](OC)O[C@H]3C[C@@H](C4=CCOC4=O)C(C)=C3[C@]12C
REMARK SMILES IDX 8 1 9 2 10 3 11 4 12 5 13 6 14 7 19 8 20 9 22 10 23 11 24 12
REMARK SMILES IDX 25 13 43 14 44 15 7 17 5 18 6 19 3 20 2 21 1 22 4 23 42 24
REMARK SMILES IDX 40 25 31 26 33 27 32 28 41 29 30 30 27 31 26 32 28 34 29 35
REMARK SMILES IDX 34 36 35 37 38 38 36 39 37 40 39 41 21 42 15 44 16 45 18 46
REMARK SMILES IDX 17 47
REMARK H PARENT 21 43
REMARK Flexibility Score:   23.900
ROOT
ATOM      1  C   UNL     1       0.173   0.662   1.595  1.00  0.00    +0.216 C 
ATOM      2  C   UNL     1       1.527   0.151   2.118  1.00  0.00    +0.164 C 
ATOM      3  O   UNL     1       2.466   1.188   2.488  1.00  0.00    -0.373 OA
ATOM      4  C   UNL     1       3.780   0.829   1.964  1.00  0.00    +0.171 C 
ATOM      5  C   UNL     1       3.693  -0.648   1.531  1.00  0.00    +0.034 C 
ATOM      6  C   UNL     1       3.988  -1.513   2.774  1.00  0.00    +0.018 C 
ATOM      7  C   UNL     1       4.584  -1.107   0.355  1.00  0.00    +0.187 C 
ATOM      8  C   UNL     1       4.029  -2.429  -0.257  1.00  0.00    +0.078 C 
ATOM      9  C   UNL     1       2.521  -2.401  -0.635  1.00  0.00    +0.124 C 
ATOM     10  C   UNL     1       1.579  -1.877   0.514  1.00  0.00    +0.004 C 
ATOM     11  C   UNL     1       1.456  -2.991   1.579  1.00  0.00    +0.015 C 
ATOM     12  C   UNL     1       2.254  -0.610   1.042  1.00  0.00    +0.043 C 
ATOM     13  C   UNL     1       0.150  -1.384  -0.023  1.00  0.00    +0.017 CG0
ATOM     14  C   UNL     1      -0.721  -0.515   1.010  1.00  0.00    +0.035 C 
ATOM     15  C   UNL     1      -1.237  -1.419   2.159  1.00  0.00    +0.020 C 
ATOM     16  G   UNL     1      -0.618  -2.501  -0.780  1.00  0.00    +0.000 G0
ENDROOT
BRANCH   1  17
ATOM     17  O   UNL     1       0.448   1.598   0.520  1.00  0.00    -0.455 OA
BRANCH  17  18
ATOM     18  C   UNL     1       0.190   2.907   0.752  1.00  0.00    +0.333 C 
ATOM     19  O   UNL     1      -0.314   3.378   1.758  1.00  0.00    -0.247 OA
BRANCH  18  20
ATOM     20  C   UNL     1       0.583   3.702  -0.455  1.00  0.00    +0.030 C 
ATOM     21  C   UNL     1       0.072   4.946  -0.548  1.00  0.00    -0.020 C 
ATOM     22  C   UNL     1       0.285   5.945  -1.639  1.00  0.00    +0.036 C 
ATOM     23  C   UNL     1       1.525   3.058  -1.428  1.00  0.00    +0.052 C 
ENDBRANCH  18  20
ENDBRANCH  17  18
ENDBRANCH   1  17
BRANCH  14  24
ATOM     24  C   UNL     1      -1.929   0.136   0.286  1.00  0.00    -0.032 C 
ATOM     25  C   UNL     1      -2.948   0.876   0.777  1.00  0.00    -0.063 C 
ATOM     26  C   UNL     1      -2.007   0.085  -1.224  1.00  0.00    +0.149 C 
ATOM     27  C   UNL     1      -3.864   1.399  -0.315  1.00  0.00    +0.055 C 
ATOM     28  C   UNL     1      -3.005   1.192  -1.571  1.00  0.00    +0.050 C 
ATOM     29  C   UNL     1      -3.236   1.310   2.181  1.00  0.00    +0.040 C 
BRANCH  26  30
ATOM     30  O   UNL     1      -2.471  -1.150  -1.751  1.00  0.00    -0.345 OA
BRANCH  30  31
ATOM     31  C   UNL     1      -2.122  -2.322  -1.034  1.00  0.00    +0.250 C 
BRANCH  31  32
ATOM     32  C   UNL     1      -0.618  -2.501  -0.780  1.00  0.00    +0.067 CG0
ATOM     33  G   UNL     1       0.150  -1.384  -0.023  1.00  0.00    +0.000 G0
ENDBRANCH  31  32
BRANCH  31  34
ATOM     34  O   UNL     1      -2.510  -3.488  -1.782  1.00  0.00    -0.356 OA
ATOM     35  C   UNL     1      -3.910  -3.569  -1.990  1.00  0.00    +0.198 C 
ENDBRANCH  31  34
ENDBRANCH  30  31
ENDBRANCH  26  30
BRANCH  27  36
ATOM     36  C   UNL     1      -5.197   0.723  -0.330  1.00  0.00    +0.044 C 
ATOM     37  C   UNL     1      -5.696  -0.263  -1.075  1.00  0.00    +0.026 C 
ATOM     38  C   UNL     1      -6.308   1.181   0.520  1.00  0.00    +0.334 C 
ATOM     39  C   UNL     1      -7.100  -0.539  -0.734  1.00  0.00    +0.261 C 
ATOM     40  O   UNL     1      -7.406   0.410   0.281  1.00  0.00    -0.458 OA
ATOM     41  O   UNL     1      -6.265   2.109   1.307  1.00  0.00    -0.247 OA
ENDBRANCH  27  36
ENDBRANCH  14  24
BRANCH   9  42
ATOM     42  O   UNL     1       2.379  -1.588  -1.802  1.00  0.00    -0.392 OA
ATOM     43  H   UNL     1       2.848  -2.034  -2.529  1.00  0.00    +0.210 HD
ENDBRANCH   9  42
BRANCH   7  44
ATOM     44  O   UNL     1       4.609  -0.073  -0.652  1.00  0.00    -0.462 OA
BRANCH  44  45
ATOM     45  C   UNL     1       5.635  -0.106  -1.542  1.00  0.00    +0.302 C 
ATOM     46  O   UNL     1       6.538  -0.930  -1.558  1.00  0.00    -0.253 OA
ATOM     47  C   UNL     1       5.497   1.023  -2.518  1.00  0.00    +0.139 C 
ENDBRANCH  44  45
ENDBRANCH   7  44
TORSDOF 8
