REMARK SMILES C=C1[C@@H]2C[C@]3(O)C=C4C=CC(=O)OC(C)(C)[C@@H]4[C@H](OC(C)=O)C[C@H]3[C@]2(C)CC[C@@]1(O)[C@@H](C)[C@H]1CC=C(C)C(=O)O1
REMARK SMILES IDX 1 1 2 2 3 3 4 4 5 5 24 6 25 7 26 8 27 9 28 10 29 11 30 12
REMARK SMILES IDX 31 14 32 15 33 16 34 17 40 18 35 19 38 20 36 21 39 22 37 23
REMARK SMILES IDX 6 24 7 26 8 27 9 28 10 29 17 31 14 33 15 34 16 35 13 36
REMARK SMILES IDX 11 37 12 38 23 40 18 41 19 43 20 44 22 45 21 46
REMARK H PARENT 30 13 6 25
REMARK Flexibility Score:   54.800
ROOT
ATOM      1  C   UNL     1       2.555   1.598  -3.111  1.00  0.00    +0.011 C 
ATOM      2  C   UNL     1       2.092   1.016  -1.986  1.00  0.00    -0.042 C 
ATOM      3  C   UNL     1       0.580   0.914  -1.819  1.00  0.00    +0.027 C 
ATOM      4  C   UNL     1      -0.073   1.925  -0.871  1.00  0.00    +0.048 C 
ATOM      5  C   UNL     1      -1.512   1.396  -0.788  1.00  0.00    +0.087 C 
ATOM      6  C   UNL     1      -1.308  -0.121  -0.592  1.00  0.00    +0.035 C 
ATOM      7  C   UNL     1       0.024  -0.470  -1.373  1.00  0.00    -0.020 C 
ATOM      8  C   UNL     1      -0.179  -1.352  -2.622  1.00  0.00    +0.012 C 
ATOM      9  C   UNL     1       0.986  -1.197  -0.401  1.00  0.00    +0.011 C 
ATOM     10  C   UNL     1       2.464  -1.112  -0.793  1.00  0.00    +0.041 C 
ATOM     11  C   UNL     1       2.962   0.349  -0.909  1.00  0.00    +0.092 C 
ENDROOT
BRANCH  11  12
ATOM     12  O   UNL     1       2.669   1.013   0.326  1.00  0.00    -0.385 OA
ATOM     13  H   UNL     1       3.240   0.614   1.011  1.00  0.00    +0.211 HD
ENDBRANCH  11  12
BRANCH  11  14
ATOM     14  C   UNL     1       4.524   0.447  -1.143  1.00  0.00    +0.063 C 
ATOM     15  C   UNL     1       5.021   1.896  -0.923  1.00  0.00    +0.015 C 
BRANCH  14  16
ATOM     16  C   UNL     1       5.348  -0.534  -0.259  1.00  0.00    +0.186 C 
ATOM     17  C   UNL     1       6.864  -0.423  -0.439  1.00  0.00    +0.073 C 
ATOM     18  O   UNL     1       5.000  -0.337   1.127  1.00  0.00    -0.458 OA
ATOM     19  C   UNL     1       7.526  -1.350   0.531  1.00  0.00    -0.012 C 
ATOM     20  C   UNL     1       5.636  -1.074   2.077  1.00  0.00    +0.333 C 
ATOM     21  C   UNL     1       6.939  -1.682   1.693  1.00  0.00    +0.030 C 
ATOM     22  O   UNL     1       5.167  -1.204   3.200  1.00  0.00    -0.247 OA
ATOM     23  C   UNL     1       7.562  -2.600   2.697  1.00  0.00    +0.052 C 
ENDBRANCH  14  16
ENDBRANCH  11  14
BRANCH   5  24
ATOM     24  O   UNL     1      -2.165   1.659  -2.028  1.00  0.00    -0.385 OA
ATOM     25  H   UNL     1      -2.350   2.614  -2.057  1.00  0.00    +0.211 HD
ENDBRANCH   5  24
BRANCH   5  26
ATOM     26  C   UNL     1      -2.318   2.022   0.310  1.00  0.00    +0.012 C 
ATOM     27  C   UNL     1      -3.594   1.721   0.639  1.00  0.00    -0.038 C 
BRANCH  27  28
ATOM     28  C   UNL     1      -4.141   2.420   1.784  1.00  0.00    +0.011 C 
ATOM     29  C   UNL     1      -5.364   2.940   1.923  1.00  0.00    +0.094 CG0
ATOM     30  G   UNL     1      -6.433   2.964   0.926  1.00  0.00    +0.000 G0
ENDBRANCH  27  28
BRANCH  27  31
ATOM     31  C   UNL     1      -4.417   0.665  -0.118  1.00  0.00    +0.103 CG1
ATOM     32  G   UNL     1      -3.766  -0.756  -0.024  1.00  0.00    +0.000 G1
BRANCH  31  33
ATOM     33  C   UNL     1      -5.953   0.614   0.211  1.00  0.00    +0.117 C 
ATOM     34  C   UNL     1      -6.706  -0.177  -0.891  1.00  0.00    +0.057 C 
ATOM     35  C   UNL     1      -6.343  -0.031   1.553  1.00  0.00    +0.057 C 
BRANCH  33  36
ATOM     36  O   UNL     1      -6.548   1.939   0.066  1.00  0.00    -0.456 OA
BRANCH  36  37
ATOM     37  C   UNL     1      -6.433   2.964   0.926  1.00  0.00    +0.331 CG0
ATOM     38  O   UNL     1      -7.213   3.911   0.906  1.00  0.00    -0.247 OA
ATOM     39  G   UNL     1      -5.364   2.940   1.923  1.00  0.00    +0.000 G0
ENDBRANCH  36  37
ENDBRANCH  33  36
ENDBRANCH  31  33
ENDBRANCH  27  31
ENDBRANCH   5  26
BRANCH   6  40
ATOM     40  C   UNL     1      -2.538  -0.969  -0.937  1.00  0.00    +0.053 C 
BRANCH  40  41
ATOM     41  C   UNL     1      -3.766  -0.756  -0.024  1.00  0.00    +0.188 CG1
ATOM     42  G   UNL     1      -4.417   0.665  -0.118  1.00  0.00    +0.000 G1
BRANCH  41  43
ATOM     43  O   UNL     1      -3.415  -1.029   1.354  1.00  0.00    -0.462 OA
BRANCH  43  44
ATOM     44  C   UNL     1      -3.397  -2.333   1.742  1.00  0.00    +0.302 C 
ATOM     45  O   UNL     1      -3.684  -3.290   1.038  1.00  0.00    -0.253 OA
ATOM     46  C   UNL     1      -2.976  -2.430   3.176  1.00  0.00    +0.139 C 
ENDBRANCH  43  44
ENDBRANCH  41  43
ENDBRANCH  40  41
ENDBRANCH   6  40
TORSDOF 6
