REMARK SMILES CC(=O)O[C@H]1[C@@H](O)[C@H](OC(=O)c2ccccc2)[C@@]2(C)[C@@H](OC(=O)/C=C/c3ccccc3)C[C@@H]3C[C@]2(OC3(C)C)[C@@]1(C)O
REMARK SMILES IDX 5 1 6 2 8 3 18 4 19 5 20 6 32 7 33 8 34 9 35 10 36 11 37 12
REMARK SMILES IDX 38 13 39 14 40 15 41 16 4 17 2 18 3 19 1 20 7 21 42 23 9 25
REMARK SMILES IDX 10 26 11 27 12 28 13 29 17 30 14 31 16 32 15 33 21 34 22 35
REMARK SMILES IDX 23 36 24 37 25 38 26 39 27 40 31 41 28 42 30 43 29 44
REMARK H PARENT 7 22 42 24
ROOT
ATOM      1  C   UNL     1      -3.150  -0.380  -1.078  1.00  0.00    +0.243 C 
ATOM      2  C   UNL     1      -2.211   0.737  -1.577  1.00  0.00    +0.200 C 
ATOM      3  C   UNL     1      -0.737   0.436  -1.198  1.00  0.00    +0.222 C 
ATOM      4  C   UNL     1      -0.224  -0.905  -1.826  1.00  0.00    +0.076 C 
ATOM      5  C   UNL     1      -0.100  -0.745  -3.370  1.00  0.00    +0.023 C 
ATOM      6  C   UNL     1       1.247  -1.231  -1.345  1.00  0.00    +0.190 C 
ATOM      7  C   UNL     1       1.581  -2.746  -1.283  1.00  0.00    +0.052 C 
ATOM      8  C   UNL     1       0.405  -3.688  -0.930  1.00  0.00    +0.027 C 
ATOM      9  C   UNL     1      -0.716  -3.407  -1.915  1.00  0.00    +0.046 C 
ATOM     10  C   UNL     1      -1.208  -2.054  -1.382  1.00  0.00    +0.114 C 
ATOM     11  O   UNL     1      -1.044  -2.170   0.085  1.00  0.00    -0.365 OA
ATOM     12  C   UNL     1      -0.302  -3.369   0.393  1.00  0.00    +0.067 C 
ATOM     13  C   UNL     1       0.618  -3.147   1.595  1.00  0.00    +0.042 C 
ATOM     14  C   UNL     1      -1.301  -4.464   0.820  1.00  0.00    +0.042 C 
ATOM     15  C   UNL     1      -2.734  -1.772  -1.654  1.00  0.00    +0.131 C 
ATOM     16  C   UNL     1      -3.163  -1.877  -3.128  1.00  0.00    +0.049 C 
ENDROOT
BRANCH   1  17
ATOM     17  O   UNL     1      -3.084  -0.347   0.373  1.00  0.00    -0.456 OA
BRANCH  17  18
ATOM     18  C   UNL     1      -4.136  -0.874   1.048  1.00  0.00    +0.303 C 
ATOM     19  O   UNL     1      -5.126  -1.368   0.523  1.00  0.00    -0.253 OA
ATOM     20  C   UNL     1      -3.901  -0.792   2.523  1.00  0.00    +0.139 C 
ENDBRANCH  17  18
ENDBRANCH   1  17
BRANCH   2  21
ATOM     21  O   UNL     1      -2.663   1.990  -1.039  1.00  0.00    -0.385 OA
ATOM     22  H   UNL     1      -2.194   2.137  -0.191  1.00  0.00    +0.211 HD
ENDBRANCH   2  21
BRANCH  15  23
ATOM     23  O   UNL     1      -3.491  -2.836  -1.031  1.00  0.00    -0.383 OA
ATOM     24  H   UNL     1      -4.357  -2.480  -0.742  1.00  0.00    +0.211 HD
ENDBRANCH  15  23
BRANCH   3  25
ATOM     25  O   UNL     1       0.128   1.515  -1.628  1.00  0.00    -0.455 OA
BRANCH  25  26
ATOM     26  C   UNL     1       0.260   2.546  -0.754  1.00  0.00    +0.338 C 
ATOM     27  O   UNL     1      -0.379   2.684   0.280  1.00  0.00    -0.246 OA
BRANCH  26  28
ATOM     28  C   UNL     1       1.325   3.483  -1.195  1.00  0.00    +0.060 A 
ATOM     29  C   UNL     1       2.007   3.328  -2.409  1.00  0.00    +0.015 A 
ATOM     30  C   UNL     1       1.663   4.546  -0.345  1.00  0.00    +0.015 A 
ATOM     31  C   UNL     1       3.013   4.229  -2.768  1.00  0.00    +0.001 A 
ATOM     32  C   UNL     1       2.669   5.443  -0.707  1.00  0.00    +0.001 A 
ATOM     33  C   UNL     1       3.342   5.285  -1.918  1.00  0.00    +0.000 A 
ENDBRANCH  26  28
ENDBRANCH  25  26
ENDBRANCH   3  25
BRANCH   6  34
ATOM     34  O   UNL     1       1.511  -0.607  -0.072  1.00  0.00    -0.458 OA
BRANCH  34  35
ATOM     35  C   UNL     1       2.787  -0.215   0.163  1.00  0.00    +0.331 C 
ATOM     36  O   UNL     1       3.752  -0.432  -0.555  1.00  0.00    -0.247 OA
BRANCH  35  37
ATOM     37  C   UNL     1       2.904   0.557   1.416  1.00  0.00    +0.094 C 
ATOM     38  C   UNL     1       1.865   0.875   2.204  1.00  0.00    +0.015 C 
BRANCH  38  39
ATOM     39  C   UNL     1       1.987   1.697   3.414  1.00  0.00    -0.025 A 
ATOM     40  C   UNL     1       3.043   1.545   4.322  1.00  0.00    +0.008 A 
ATOM     41  C   UNL     1       0.984   2.636   3.692  1.00  0.00    +0.008 A 
ATOM     42  C   UNL     1       3.106   2.334   5.473  1.00  0.00    +0.001 A 
ATOM     43  C   UNL     1       1.049   3.425   4.843  1.00  0.00    +0.001 A 
ATOM     44  C   UNL     1       2.111   3.275   5.732  1.00  0.00    +0.000 A 
ENDBRANCH  38  39
ENDBRANCH  35  37
ENDBRANCH  34  35
ENDBRANCH   6  34
TORSDOF 11
