REMARK SMILES CO[C@H]1[C@H](O)[C@@H](O)[C@H](Oc2ccc3c4c([nH]c3c2)[C@@]2(C)[C@@H](CC[C@H]3C(C)(C)C(=O)C=C[C@@]32C)C4)O[C@@H]1CO
REMARK SMILES IDX 3 1 4 2 6 3 8 4 35 5 36 6 2 7 1 8 5 9 37 11 38 12 7 14 9 16
REMARK SMILES IDX 10 17 11 18 18 19 12 20 17 21 13 22 16 23 14 24 15 25 34 26
REMARK SMILES IDX 19 27 21 28 32 29 22 30 31 31 24 32 23 33 30 34 25 35 28 36
REMARK SMILES IDX 29 37 20 39 33 40 26 41 27 42
REMARK H PARENT 5 10 38 13 7 15 16 38
ROOT
ATOM      1  C   UNL     1       6.712  -1.963   0.545  1.00  0.00    +0.180 C 
ATOM      2  C   UNL     1       7.063  -0.576  -0.027  1.00  0.00    +0.181 C 
ATOM      3  C   UNL     1       6.327   0.544   0.714  1.00  0.00    +0.214 C 
ATOM      4  C   UNL     1       4.821   0.248   0.793  1.00  0.00    +0.339 C 
ATOM      5  O   UNL     1       4.627  -1.013   1.433  1.00  0.00    -0.332 OA
ATOM      6  C   UNL     1       5.175  -2.089   0.666  1.00  0.00    +0.179 C 
ENDROOT
BRANCH   1   7
ATOM      7  O   UNL     1       7.164  -3.050  -0.286  1.00  0.00    -0.376 OA
ATOM      8  C   UNL     1       8.581  -3.182  -0.347  1.00  0.00    +0.195 C 
ENDBRANCH   1   7
BRANCH   2   9
ATOM      9  O   UNL     1       8.473  -0.314   0.085  1.00  0.00    -0.387 OA
ATOM     10  H   UNL     1       8.582   0.622  -0.184  1.00  0.00    +0.211 HD
ENDBRANCH   2   9
BRANCH   6  11
ATOM     11  C   UNL     1       4.772  -3.415   1.330  1.00  0.00    +0.191 C 
BRANCH  11  12
ATOM     12  O   UNL     1       5.018  -4.535   0.487  1.00  0.00    -0.394 OA
ATOM     13  H   UNL     1       5.907  -4.405   0.093  1.00  0.00    +0.210 HD
ENDBRANCH  11  12
ENDBRANCH   6  11
BRANCH   3  14
ATOM     14  O   UNL     1       6.594   1.785   0.035  1.00  0.00    -0.384 OA
ATOM     15  H   UNL     1       6.039   2.456   0.479  1.00  0.00    +0.211 HD
ENDBRANCH   3  14
BRANCH   4  16
ATOM     16  O   UNL     1       4.245   1.317   1.558  1.00  0.00    -0.462 OA
BRANCH  16  17
ATOM     17  C   UNL     1       2.889   1.495   1.473  1.00  0.00    +0.125 A 
ATOM     18  C   UNL     1       2.441   2.733   1.940  1.00  0.00    +0.047 A 
ATOM     19  C   UNL     1       1.978   0.547   0.993  1.00  0.00    +0.073 A 
ATOM     20  C   UNL     1       1.082   3.072   1.921  1.00  0.00    +0.014 A 
ATOM     21  C   UNL     1       0.617   0.893   0.977  1.00  0.00    +0.050 A 
ATOM     22  C   UNL     1       0.154   2.140   1.429  1.00  0.00    +0.003 A 
ATOM     23  N   UNL     1      -0.481   0.147   0.563  1.00  0.00    -0.358 N 
ATOM     24  C   UNL     1      -1.238   2.120   1.262  1.00  0.00    -0.018 A 
ATOM     25  C   UNL     1      -1.589   0.905   0.723  1.00  0.00    +0.026 A 
ATOM     26  C   UNL     1      -2.433   2.989   1.469  1.00  0.00    +0.042 C 
ATOM     27  C   UNL     1      -3.068   0.727   0.547  1.00  0.00    +0.020 C 
ATOM     28  C   UNL     1      -3.421   2.283   0.484  1.00  0.00    +0.006 C 
ATOM     29  C   UNL     1      -3.646   0.055  -0.754  1.00  0.00    +0.001 C 
ATOM     30  C   UNL     1      -4.909   2.531   0.572  1.00  0.00    +0.005 C 
ATOM     31  C   UNL     1      -3.423  -1.446  -0.773  1.00  0.00    -0.015 C 
ATOM     32  C   UNL     1      -5.217   0.314  -0.757  1.00  0.00    +0.013 C 
ATOM     33  C   UNL     1      -5.595   1.819  -0.611  1.00  0.00    +0.006 C 
ATOM     34  C   UNL     1      -4.272  -2.322  -1.324  1.00  0.00    +0.044 C 
ATOM     35  C   UNL     1      -6.018  -0.449  -1.870  1.00  0.00    +0.031 C 
ATOM     36  C   UNL     1      -5.525  -1.901  -1.997  1.00  0.00    +0.161 C 
ATOM     37  O   UNL     1      -6.131  -2.749  -2.654  1.00  0.00    -0.294 OA
ATOM     38  H   UNL     1      -0.433  -0.800   0.213  1.00  0.00    +0.166 HD
ATOM     39  C   UNL     1      -3.579   0.060   1.861  1.00  0.00    +0.019 C 
ATOM     40  C   UNL     1      -2.950   0.596  -2.030  1.00  0.00    +0.017 C 
ATOM     41  C   UNL     1      -7.510  -0.540  -1.454  1.00  0.00    +0.020 C 
ATOM     42  C   UNL     1      -5.978   0.203  -3.261  1.00  0.00    +0.020 C 
ENDBRANCH  16  17
ENDBRANCH   4  16
TORSDOF 7
