REMARK SMILES CC1=C[C@H]2O[C@@H]3C[C@H]4OC(=O)/C=C\C=C\[C@H]5O[C@H](C/C(C)=C/C(=O)OC[C@@]2(CC1)[C@]4(C)[C@]31CO1)O[C@@H]5C
REMARK SMILES IDX 10 1 11 2 9 3 8 4 2 5 3 6 29 7 4 8 28 9 5 10 27 11 6 12
REMARK SMILES IDX 30 13 7 14 32 15 33 16 34 17 1 18 31 19 26 20 25 21 23 22
REMARK SMILES IDX 24 23 12 25 13 26 14 27 15 28 16 29 17 30 36 31 18 32 35 33
REMARK SMILES IDX 37 34 19 35 20 36 22 37 21 38
REMARK H PARENT
REMARK Flexibility Score:  101.900
ROOT
ATOM      1  C   UNL     1       0.416  -3.281   1.692  1.00  0.00    +0.331 C 
ATOM      2  O   UNL     1       0.087  -3.238   2.866  1.00  0.00    -0.247 OA
ENDROOT
BRANCH   1   3
ATOM      3  O   UNL     1      -0.196  -2.655   0.659  1.00  0.00    -0.458 OA
BRANCH   3   4
ATOM      4  C   UNL     1      -1.326  -1.820   0.994  1.00  0.00    +0.189 C 
ATOM      5  C   UNL     1      -5.004   2.014   0.462  1.00  0.00    -0.075 C 
ATOM      6  C   UNL     1      -4.874   0.927   1.243  1.00  0.00    +0.004 C 
ATOM      7  C   UNL     1      -4.066   2.290  -0.682  1.00  0.00    +0.031 C 
ATOM      8  C   UNL     1      -3.786  -0.103   1.110  1.00  0.00    +0.152 C 
ATOM      9  C   UNL     1      -3.179   1.092  -1.046  1.00  0.00    +0.019 C 
ATOM     10  O   UNL     1      -4.454  -1.294   0.670  1.00  0.00    -0.367 OA
ATOM     11  C   UNL     1      -2.589   0.340   0.192  1.00  0.00    +0.047 C 
ATOM     12  C   UNL     1      -3.603  -2.374   0.283  1.00  0.00    +0.158 C 
ATOM     13  C   UNL     1      -1.761  -0.966  -0.268  1.00  0.00    +0.050 C 
ATOM     14  C   UNL     1      -2.550  -2.707   1.346  1.00  0.00    +0.081 C 
ATOM     15  C   UNL     1      -2.786  -1.912  -0.868  1.00  0.00    +0.127 C 
ATOM     16  C   UNL     1      -3.193  -2.038  -2.318  1.00  0.00    +0.200 C 
ATOM     17  O   UNL     1      -2.285  -2.965  -1.705  1.00  0.00    -0.366 OA
ATOM     18  C   UNL     1      -6.099   3.019   0.673  1.00  0.00    +0.039 C 
ATOM     19  C   UNL     1      -0.576  -0.689  -1.206  1.00  0.00    +0.019 C 
BRANCH  11  20
ATOM     20  C   UNL     1      -1.719   1.347   1.012  1.00  0.00    +0.244 C 
BRANCH  20  21
ATOM     21  O   UNL     1      -0.623   1.819   0.223  1.00  0.00    -0.462 OA
BRANCH  21  22
ATOM     22  C   UNL     1       0.262   2.606   0.889  1.00  0.00    +0.330 CG0
ATOM     23  O   UNL     1       0.098   3.098   1.989  1.00  0.00    -0.247 OA
ATOM     24  G   UNL     1       1.494   2.635   0.066  1.00  0.00    +0.000 G0
ENDBRANCH  21  22
ENDBRANCH  20  21
ENDBRANCH  11  20
ENDBRANCH   3   4
ENDBRANCH   1   3
BRANCH   1  25
ATOM     25  C   UNL     1       1.500  -4.145   1.187  1.00  0.00    +0.093 C 
ATOM     26  C   UNL     1       2.539  -3.758   0.430  1.00  0.00    +0.007 C 
BRANCH  26  27
ATOM     27  C   UNL     1       2.846  -2.407   0.015  1.00  0.00    -0.001 C 
ATOM     28  C   UNL     1       3.854  -2.101  -0.820  1.00  0.00    +0.007 C 
BRANCH  28  29
ATOM     29  C   UNL     1       4.227  -0.708  -1.254  1.00  0.00    +0.173 C 
ATOM     30  O   UNL     1       3.541   0.269  -0.463  1.00  0.00    -0.342 OA
ATOM     31  C   UNL     1       5.702  -0.362  -1.071  1.00  0.00    +0.151 C 
ATOM     32  C   UNL     1       4.502   1.290  -0.158  1.00  0.00    +0.255 C 
ATOM     33  O   UNL     1       5.682   1.064  -0.935  1.00  0.00    -0.346 OA
ATOM     34  C   UNL     1       6.584  -0.766  -2.237  1.00  0.00    +0.042 C 
BRANCH  32  35
ATOM     35  C   UNL     1       3.911   2.678  -0.444  1.00  0.00    +0.093 C 
BRANCH  35  36
ATOM     36  C   UNL     1       2.732   2.979   0.472  1.00  0.00    -0.061 C 
ATOM     37  C   UNL     1       1.494   2.635   0.066  1.00  0.00    +0.092 CG0
ATOM     38  C   UNL     1       3.099   3.561   1.809  1.00  0.00    +0.040 C 
ATOM     39  G   UNL     1       0.262   2.606   0.889  1.00  0.00    +0.000 G0
ENDBRANCH  35  36
ENDBRANCH  32  35
ENDBRANCH  28  29
ENDBRANCH  26  27
ENDBRANCH   1  25
TORSDOF 0
