REMARK SMILES C[C@H](O)CNc1nccc(-n2ccnc2-c2ccc(NC(=O)c3coc(-c4cc(C(F)(F)F)ccc4Cl)c3)cc2)n1
REMARK SMILES IDX 11 1 12 2 13 3 14 4 15 5 10 6 6 7 7 8 41 9 8 10 9 11 5 12
REMARK SMILES IDX 4 14 2 15 1 16 3 17 16 19 17 20 40 21 18 22 39 23 19 24
REMARK SMILES IDX 20 25 21 26 22 27 23 29 24 30 38 31 25 32 26 33 27 34 28 35
REMARK SMILES IDX 36 36 29 37 35 38 34 39 37 40 30 41 31 42 32 43 33 44
REMARK H PARENT 5 13 3 18 20 28
ROOT
ATOM      1  N   UNL     1       4.342   0.715   1.017  1.00  0.00    -0.284 N 
ATOM      2  C   UNL     1       5.407   1.004   1.851  1.00  0.00    +0.115 A 
ATOM      3  C   UNL     1       4.900   1.748   2.883  1.00  0.00    +0.132 A 
ATOM      4  N   UNL     1       3.547   1.862   2.767  1.00  0.00    -0.236 NA
ATOM      5  C   UNL     1       3.204   1.157   1.699  1.00  0.00    +0.145 A 
ENDROOT
BRANCH   1   6
ATOM      6  C   UNL     1       4.488   0.101  -0.267  1.00  0.00    +0.143 A 
ATOM      7  C   UNL     1       5.841  -1.091  -1.715  1.00  0.00    +0.224 A 
ATOM      8  N   UNL     1       4.899  -1.129  -2.658  1.00  0.00    -0.222 NA
ATOM      9  N   UNL     1       5.689  -0.472  -0.536  1.00  0.00    -0.195 NA
ATOM     10  C   UNL     1       3.738  -0.510  -2.387  1.00  0.00    +0.119 A 
ATOM     11  C   UNL     1       3.475   0.130  -1.200  1.00  0.00    +0.068 A 
BRANCH   7  12
ATOM     12  N   UNL     1       7.016  -1.709  -2.018  1.00  0.00    -0.352 N 
ATOM     13  H   UNL     1       7.033  -2.139  -2.931  1.00  0.00    +0.163 HD
BRANCH  12  14
ATOM     14  C   UNL     1       8.139  -1.837  -1.113  1.00  0.00    +0.147 C 
BRANCH  14  15
ATOM     15  C   UNL     1       8.997  -0.555  -1.087  1.00  0.00    +0.130 C 
ATOM     16  C   UNL     1      10.366  -0.822  -0.480  1.00  0.00    +0.040 C 
BRANCH  15  17
ATOM     17  O   UNL     1       8.378   0.467  -0.302  1.00  0.00    -0.392 OA
ATOM     18  H   UNL     1       7.417   0.399  -0.477  1.00  0.00    +0.211 HD
ENDBRANCH  15  17
ENDBRANCH  14  15
ENDBRANCH  12  14
ENDBRANCH   7  12
ENDBRANCH   1   6
BRANCH   5  19
ATOM     19  C   UNL     1       1.806   0.868   1.374  1.00  0.00    +0.018 A 
ATOM     20  C   UNL     1       0.890   1.917   1.256  1.00  0.00    +0.014 A 
ATOM     21  C   UNL     1       1.346  -0.447   1.236  1.00  0.00    +0.014 A 
ATOM     22  C   UNL     1      -0.452   1.659   0.959  1.00  0.00    +0.027 A 
ATOM     23  C   UNL     1       0.002  -0.704   0.933  1.00  0.00    +0.027 A 
ATOM     24  C   UNL     1      -0.906   0.345   0.784  1.00  0.00    +0.041 A 
BRANCH  24  25
ATOM     25  N   UNL     1      -2.273   0.174   0.485  1.00  0.00    -0.322 N 
ATOM     26  C   UNL     1      -2.933  -1.008   0.201  1.00  0.00    +0.258 C 
ATOM     27  O   UNL     1      -2.409  -2.111   0.099  1.00  0.00    -0.269 OA
ATOM     28  H   UNL     1      -2.822   1.021   0.454  1.00  0.00    +0.170 HD
BRANCH  26  29
ATOM     29  C   UNL     1      -4.369  -0.850  -0.009  1.00  0.00    +0.079 A 
ATOM     30  C   UNL     1      -5.188  -1.863  -0.467  1.00  0.00    +0.209 A 
ATOM     31  C   UNL     1      -5.244   0.262   0.193  1.00  0.00    +0.064 A 
ATOM     32  O   UNL     1      -6.473  -1.447  -0.571  1.00  0.00    -0.463 OA
ATOM     33  C   UNL     1      -6.514  -0.140  -0.176  1.00  0.00    +0.136 A 
BRANCH  33  34
ATOM     34  C   UNL     1      -7.833   0.489  -0.215  1.00  0.00    +0.036 A 
ATOM     35  C   UNL     1      -8.958  -0.291   0.124  1.00  0.00    +0.026 A 
ATOM     36  C   UNL     1      -8.045   1.833  -0.567  1.00  0.00    +0.052 A 
ATOM     37  C   UNL     1     -10.260   0.240   0.121  1.00  0.00    +0.056 A 
ATOM     38  C   UNL     1      -9.338   2.374  -0.564  1.00  0.00    +0.022 A 
ATOM     39  C   UNL     1     -10.437   1.586  -0.218  1.00  0.00    +0.014 A 
ATOM     40 Cl   UNL     1      -6.767   2.893  -1.058  1.00  0.00    -0.084 Cl
BRANCH  37  41
ATOM     41  C   UNL     1     -11.437  -0.621   0.516  1.00  0.00    +0.416 C 
ATOM     42  F   UNL     1     -12.619  -0.178   0.004  1.00  0.00    -0.166 F 
ATOM     43  F   UNL     1     -11.607  -0.670   1.865  1.00  0.00    -0.166 F 
ATOM     44  F   UNL     1     -11.313  -1.913   0.104  1.00  0.00    -0.166 F 
ENDBRANCH  37  41
ENDBRANCH  33  34
ENDBRANCH  26  29
ENDBRANCH  24  25
ENDBRANCH   5  19
TORSDOF 10
