REMARK SMILES CC(=O)O[C@H]1[C@H](OC(=O)c2ccccc2)[C@@]2(C)[C@@H](OC(=O)c3ccccc3)C[C@@H]3[C@@H](OC(C)=O)[C@]2(OC3(C)C)[C@@](C)(O)[C@H]1O
REMARK SMILES IDX 5 1 6 2 16 3 17 4 18 5 28 6 29 7 30 8 35 9 36 10 37 11 38 12
REMARK SMILES IDX 39 13 40 14 41 15 43 16 4 17 2 18 3 19 1 20 7 21 8 22 9 23
REMARK SMILES IDX 10 24 11 25 15 26 12 27 14 28 13 29 44 30 42 32 19 34 20 35
REMARK SMILES IDX 21 36 22 37 23 38 27 39 24 40 26 41 25 42 31 43 32 44 34 45
REMARK SMILES IDX 33 46
REMARK H PARENT 44 31 42 33
ROOT
ATOM      1  C   UNL     1      -1.575  -0.903   1.732  1.00  0.00    +0.249 C 
ATOM      2  C   UNL     1      -0.933  -0.014   0.644  1.00  0.00    +0.233 C 
ATOM      3  C   UNL     1      -0.570  -0.812  -0.660  1.00  0.00    +0.081 C 
ATOM      4  C   UNL     1      -1.886  -1.202  -1.401  1.00  0.00    +0.023 C 
ATOM      5  C   UNL     1       0.205   0.119  -1.681  1.00  0.00    +0.190 C 
ATOM      6  C   UNL     1       1.219  -0.621  -2.596  1.00  0.00    +0.056 C 
ATOM      7  C   UNL     1       1.897  -1.873  -1.988  1.00  0.00    +0.068 C 
ATOM      8  C   UNL     1       0.771  -2.804  -1.554  1.00  0.00    +0.218 C 
ATOM      9  C   UNL     1       0.321  -2.063  -0.265  1.00  0.00    +0.149 C 
ATOM     10  O   UNL     1       1.568  -1.475   0.303  1.00  0.00    -0.361 OA
ATOM     11  C   UNL     1       2.636  -1.623  -0.661  1.00  0.00    +0.070 C 
ATOM     12  C   UNL     1       3.530  -2.797  -0.206  1.00  0.00    +0.042 C 
ATOM     13  C   UNL     1       3.559  -0.399  -0.656  1.00  0.00    +0.042 C 
ATOM     14  C   UNL     1      -0.288  -2.963   0.872  1.00  0.00    +0.125 C 
ATOM     15  C   UNL     1      -1.458  -3.861   0.453  1.00  0.00    +0.048 C 
ATOM     16  C   UNL     1      -0.669  -2.094   2.099  1.00  0.00    +0.193 C 
ENDROOT
BRANCH   1  17
ATOM     17  O   UNL     1      -1.798  -0.090   2.908  1.00  0.00    -0.456 OA
BRANCH  17  18
ATOM     18  C   UNL     1      -2.732  -0.545   3.781  1.00  0.00    +0.303 C 
ATOM     19  O   UNL     1      -3.410  -1.551   3.626  1.00  0.00    -0.253 OA
ATOM     20  C   UNL     1      -2.822   0.371   4.962  1.00  0.00    +0.139 C 
ENDBRANCH  17  18
ENDBRANCH   1  17
BRANCH   2  21
ATOM     21  O   UNL     1      -1.864   1.041   0.286  1.00  0.00    -0.454 OA
BRANCH  21  22
ATOM     22  C   UNL     1      -1.709   2.238   0.907  1.00  0.00    +0.338 C 
ATOM     23  O   UNL     1      -0.883   2.504   1.764  1.00  0.00    -0.246 OA
BRANCH  22  24
ATOM     24  C   UNL     1      -2.678   3.230   0.372  1.00  0.00    +0.060 A 
ATOM     25  C   UNL     1      -2.538   4.568   0.769  1.00  0.00    +0.015 A 
ATOM     26  C   UNL     1      -3.711   2.877  -0.506  1.00  0.00    +0.015 A 
ATOM     27  C   UNL     1      -3.419   5.540   0.292  1.00  0.00    +0.001 A 
ATOM     28  C   UNL     1      -4.591   3.853  -0.981  1.00  0.00    +0.001 A 
ATOM     29  C   UNL     1      -4.444   5.181  -0.582  1.00  0.00    +0.000 A 
ENDBRANCH  22  24
ENDBRANCH  21  22
ENDBRANCH   2  21
BRANCH  16  30
ATOM     30  O   UNL     1       0.543  -1.634   2.744  1.00  0.00    -0.386 OA
ATOM     31  H   UNL     1       1.118  -1.232   2.059  1.00  0.00    +0.211 HD
ENDBRANCH  16  30
BRANCH  14  32
ATOM     32  O   UNL     1       0.722  -3.889   1.340  1.00  0.00    -0.384 OA
ATOM     33  H   UNL     1       1.291  -3.381   1.953  1.00  0.00    +0.211 HD
ENDBRANCH  14  32
BRANCH   5  34
ATOM     34  O   UNL     1       0.878   1.190  -0.985  1.00  0.00    -0.458 OA
BRANCH  34  35
ATOM     35  C   UNL     1       0.998   2.368  -1.654  1.00  0.00    +0.338 C 
ATOM     36  O   UNL     1       0.613   2.579  -2.794  1.00  0.00    -0.246 OA
BRANCH  35  37
ATOM     37  C   UNL     1       1.687   3.391  -0.822  1.00  0.00    +0.060 A 
ATOM     38  C   UNL     1       1.973   4.633  -1.407  1.00  0.00    +0.015 A 
ATOM     39  C   UNL     1       2.052   3.160   0.510  1.00  0.00    +0.015 A 
ATOM     40  C   UNL     1       2.618   5.628  -0.669  1.00  0.00    +0.001 A 
ATOM     41  C   UNL     1       2.694   4.158   1.246  1.00  0.00    +0.001 A 
ATOM     42  C   UNL     1       2.978   5.389   0.656  1.00  0.00    +0.000 A 
ENDBRANCH  35  37
ENDBRANCH  34  35
ENDBRANCH   5  34
BRANCH   8  43
ATOM     43  O   UNL     1       1.246  -4.135  -1.325  1.00  0.00    -0.459 OA
BRANCH  43  44
ATOM     44  C   UNL     1       1.379  -4.925  -2.423  1.00  0.00    +0.303 C 
ATOM     45  O   UNL     1       1.138  -4.582  -3.571  1.00  0.00    -0.253 OA
ATOM     46  C   UNL     1       1.872  -6.281  -2.023  1.00  0.00    +0.139 C 
ENDBRANCH  43  44
ENDBRANCH   8  43
TORSDOF 12
