REMARK SMILES O=C(N[C@@H](Cc1c[nH]c2ccc([O-])cc12)c1cscn1)c1ccc2c(c1)nc(-c1ccccn1)n2C1CCCCC1
REMARK SMILES IDX 4 1 3 2 1 3 2 4 21 6 22 7 26 8 23 9 25 10 24 11 27 12 35 13
REMARK SMILES IDX 28 14 36 15 37 16 41 17 38 18 40 19 39 20 29 21 30 22 34 23
REMARK SMILES IDX 31 24 33 25 32 26 5 27 6 28 7 29 15 30 8 31 14 32 9 33 12 34
REMARK SMILES IDX 10 35 11 36 13 38 16 39 17 40 20 41 18 42 19 43
REMARK H PARENT 3 5 8 37
ROOT
ATOM      1  C   UNL     1       4.022   0.895  -0.028  1.00  0.00    +0.136 C 
ENDROOT
BRANCH   1   2
ATOM      2  N   UNL     1       2.594   0.587   0.105  1.00  0.00    -0.343 N 
ATOM      3  O   UNL     1       2.428  -0.875  -1.650  1.00  0.00    -0.269 OA
ATOM      4  C   UNL     1       1.925  -0.300  -0.694  1.00  0.00    +0.251 C 
ATOM      5  H   UNL     1       2.115   1.134   0.811  1.00  0.00    +0.164 HD
BRANCH   4   6
ATOM      6  C   UNL     1       0.488  -0.514  -0.365  1.00  0.00    +0.042 A 
ATOM      7  C   UNL     1       0.017  -0.422   0.951  1.00  0.00    +0.016 A 
ATOM      8  C   UNL     1      -0.387  -0.837  -1.411  1.00  0.00    +0.044 A 
ATOM      9  C   UNL     1      -1.337  -0.617   1.252  1.00  0.00    +0.029 A 
ATOM     10  C   UNL     1      -1.744  -1.034  -1.119  1.00  0.00    +0.090 A 
ATOM     11  C   UNL     1      -2.199  -0.915   0.187  1.00  0.00    +0.069 A 
ATOM     12  N   UNL     1      -2.771  -1.346  -1.961  1.00  0.00    -0.227 NA
ATOM     13  N   UNL     1      -3.569  -1.143   0.103  1.00  0.00    -0.320 N 
ATOM     14  C   UNL     1      -3.860  -1.477  -1.214  1.00  0.00    +0.160 A 
BRANCH  13  15
ATOM     15  C   UNL     1      -4.469  -0.958   1.240  1.00  0.00    +0.089 C 
ATOM     16  C   UNL     1      -5.679  -0.043   0.976  1.00  0.00    +0.025 C 
ATOM     17  C   UNL     1      -4.823  -2.271   1.955  1.00  0.00    +0.025 C 
ATOM     18  C   UNL     1      -6.509   0.162   2.243  1.00  0.00    +0.002 C 
ATOM     19  C   UNL     1      -5.685  -2.025   3.192  1.00  0.00    +0.002 C 
ATOM     20  C   UNL     1      -6.907  -1.169   2.875  1.00  0.00    +0.000 C 
ENDBRANCH  13  15
BRANCH  14  21
ATOM     21  C   UNL     1      -5.149  -1.897  -1.783  1.00  0.00    +0.106 A 
ATOM     22  C   UNL     1      -5.426  -1.670  -3.130  1.00  0.00    +0.032 A 
ATOM     23  N   UNL     1      -6.007  -2.556  -0.970  1.00  0.00    -0.253 NA
ATOM     24  C   UNL     1      -6.634  -2.116  -3.659  1.00  0.00    +0.004 A 
ATOM     25  C   UNL     1      -7.170  -2.984  -1.512  1.00  0.00    +0.112 A 
ATOM     26  C   UNL     1      -7.527  -2.787  -2.835  1.00  0.00    +0.020 A 
ENDBRANCH  14  21
ENDBRANCH   4   6
ENDBRANCH   1   2
BRANCH   1  27
ATOM     27  C   UNL     1       4.289   1.752  -1.283  1.00  0.00    +0.069 C 
BRANCH  27  28
ATOM     28  C   UNL     1       5.658   2.362  -1.376  1.00  0.00    -0.020 A 
ATOM     29  C   UNL     1       5.931   3.713  -1.503  1.00  0.00    +0.087 A 
ATOM     30  C   UNL     1       6.924   1.688  -1.327  1.00  0.00    +0.002 A 
ATOM     31  N   UNL     1       7.289   3.876  -1.510  1.00  0.00    -0.361 N 
ATOM     32  C   UNL     1       7.332   0.337  -1.203  1.00  0.00    +0.002 A 
ATOM     33  C   UNL     1       7.915   2.663  -1.376  1.00  0.00    +0.046 A 
ATOM     34  C   UNL     1       8.682  -0.055  -1.077  1.00  0.00    -0.108 A 
ATOM     35  C   UNL     1       9.271   2.351  -1.293  1.00  0.00    +0.026 A 
ATOM     36  C   UNL     1       9.613   0.997  -1.135  1.00  0.00    -0.006 A 
ATOM     37  H   UNL     1       7.774   4.757  -1.580  1.00  0.00    +0.166 HD
ATOM     38  O   UNL     1       9.032  -1.271  -0.917  1.00  0.00    -0.872 OA
ENDBRANCH  27  28
ENDBRANCH   1  27
BRANCH   1  39
ATOM     39  C   UNL     1       4.397   1.587   1.270  1.00  0.00    +0.074 A 
ATOM     40  C   UNL     1       5.615   1.500   1.923  1.00  0.00    +0.092 A 
ATOM     41  N   UNL     1       3.436   2.365   1.934  1.00  0.00    -0.248 NA
ATOM     42  S   UNL     1       5.594   2.441   3.353  1.00  0.00    -0.130 S 
ATOM     43  C   UNL     1       3.970   2.872   3.023  1.00  0.00    +0.175 A 
ENDBRANCH   1  39
TORSDOF 7
