REMARK SMILES CN(C(=O)C(C)(C)c1cc(C(F)(F)F)cc(C(F)(F)F)c1)c1cnc([NH+]2CC[C@H](O)[C@H]2CO)cc1-c1ccccc1Cl
REMARK SMILES IDX 1 1 2 2 3 3 4 4 5 5 6 6 7 7 8 8 9 9 21 10 10 11 16 12 15 13
REMARK SMILES IDX 11 14 12 15 13 16 14 17 17 18 18 19 19 20 20 21 22 22 23 23
REMARK SMILES IDX 35 24 24 25 34 26 25 27 36 28 37 29 41 30 38 31 40 32 39 33
REMARK SMILES IDX 42 34 26 35 27 36 31 37 28 38 29 39 32 41 33 42 30 44
REMARK H PARENT 26 40 33 43 30 45
ROOT
ATOM      1  C   UNL     1      -1.755  -0.425  -1.114  1.00  0.00    +0.153 C 
ATOM      2  N   UNL     1      -0.948  -0.497   0.102  1.00  0.00    -0.313 N 
ENDROOT
BRANCH   2   3
ATOM      3  C   UNL     1      -1.406  -0.993   1.337  1.00  0.00    +0.236 C 
ATOM      4  O   UNL     1      -0.647  -1.028   2.316  1.00  0.00    -0.274 OA
BRANCH   3   5
ATOM      5  C   UNL     1      -2.872  -1.522   1.501  1.00  0.00    +0.069 C 
ATOM      6  C   UNL     1      -3.027  -2.071   2.947  1.00  0.00    +0.027 C 
ATOM      7  C   UNL     1      -3.082  -2.735   0.568  1.00  0.00    +0.027 C 
BRANCH   5   8
ATOM      8  C   UNL     1      -3.917  -0.398   1.370  1.00  0.00    -0.032 A 
ATOM      9  C   UNL     1      -3.659   0.874   1.918  1.00  0.00    +0.018 A 
ATOM     10  C   UNL     1      -5.164  -0.604   0.755  1.00  0.00    +0.018 A 
ATOM     11  C   UNL     1      -4.588   1.925   1.821  1.00  0.00    +0.056 A 
ATOM     12  C   UNL     1      -6.113   0.429   0.648  1.00  0.00    +0.056 A 
ATOM     13  C   UNL     1      -5.815   1.688   1.189  1.00  0.00    +0.026 A 
BRANCH  11  14
ATOM     14  C   UNL     1      -4.268   3.273   2.425  1.00  0.00    +0.416 C 
ATOM     15  F   UNL     1      -5.006   4.287   1.898  1.00  0.00    -0.166 F 
ATOM     16  F   UNL     1      -2.965   3.627   2.239  1.00  0.00    -0.166 F 
ATOM     17  F   UNL     1      -4.479   3.305   3.768  1.00  0.00    -0.166 F 
ENDBRANCH  11  14
BRANCH  12  18
ATOM     18  C   UNL     1      -7.450   0.165  -0.010  1.00  0.00    +0.416 C 
ATOM     19  F   UNL     1      -8.056   1.297  -0.461  1.00  0.00    -0.166 F 
ATOM     20  F   UNL     1      -8.333  -0.431   0.834  1.00  0.00    -0.166 F 
ATOM     21  F   UNL     1      -7.344  -0.657  -1.091  1.00  0.00    -0.166 F 
ENDBRANCH  12  18
ENDBRANCH   5   8
ENDBRANCH   3   5
ENDBRANCH   2   3
BRANCH   2  22
ATOM     22  C   UNL     1       0.408  -0.005   0.011  1.00  0.00    +0.070 A 
ATOM     23  C   UNL     1       0.911   0.828   1.022  1.00  0.00    +0.144 A 
ATOM     24  C   UNL     1       1.292  -0.312  -1.050  1.00  0.00    +0.016 A 
ATOM     25  N   UNL     1       2.161   1.357   1.058  1.00  0.00    -0.203 NA
ATOM     26  C   UNL     1       2.594   0.228  -1.015  1.00  0.00    +0.101 A 
ATOM     27  C   UNL     1       2.965   1.032   0.049  1.00  0.00    +0.226 A 
BRANCH  24  28
ATOM     28  C   UNL     1       0.991  -1.265  -2.135  1.00  0.00    +0.003 A 
ATOM     29  C   UNL     1       0.747  -0.780  -3.435  1.00  0.00    +0.010 A 
ATOM     30  C   UNL     1       0.970  -2.661  -1.936  1.00  0.00    +0.048 A 
ATOM     31  C   UNL     1       0.464  -1.653  -4.488  1.00  0.00    +0.001 A 
ATOM     32  C   UNL     1       0.686  -3.532  -2.992  1.00  0.00    +0.021 A 
ATOM     33  C   UNL     1       0.430  -3.027  -4.266  1.00  0.00    +0.002 A 
ATOM     34 Cl   UNL     1       1.317  -3.363  -0.392  1.00  0.00    -0.084 Cl
ENDBRANCH  24  28
BRANCH  27  35
ATOM     35  N   UNL     1       4.290   1.553   0.205  1.00  0.00    -0.279 N 
ATOM     36  C   UNL     1       4.744   2.507  -0.840  1.00  0.00    +0.272 C 
ATOM     37  C   UNL     1       5.361   0.500   0.450  1.00  0.00    +0.245 C 
ATOM     38  C   UNL     1       6.259   2.408  -0.764  1.00  0.00    +0.100 C 
ATOM     39  C   UNL     1       6.485   0.924  -0.520  1.00  0.00    +0.181 C 
ATOM     40  H   UNL     1       4.221   2.085   1.092  1.00  0.00    +0.355 HD
BRANCH  37  41
ATOM     41  C   UNL     1       5.757   0.580   1.934  1.00  0.00    +0.224 C 
BRANCH  41  42
ATOM     42  O   UNL     1       5.790   1.951   2.339  1.00  0.00    -0.390 OA
ATOM     43  H   UNL     1       6.043   1.965   3.285  1.00  0.00    +0.210 HD
ENDBRANCH  41  42
ENDBRANCH  37  41
BRANCH  39  44
ATOM     44  O   UNL     1       6.297   0.243  -1.766  1.00  0.00    -0.387 OA
ATOM     45  H   UNL     1       7.124   0.323  -2.281  1.00  0.00    +0.211 HD
ENDBRANCH  39  44
ENDBRANCH  27  35
ENDBRANCH   2  22
TORSDOF 11
