REMARK SMILES COc1cc2nc(N3CCOCC3)nc(N3CC[NH+](C(=O)Nc4ccc(Oc5ccccc5)cc4)CC3)c2cc1OC
REMARK SMILES IDX 16 1 17 2 18 3 19 4 36 5 37 6 15 8 3 9 4 10 40 11 5 12 39 13
REMARK SMILES IDX 6 14 38 15 7 16 14 17 2 18 1 19 41 20 42 21 8 22 9 23 13 24
REMARK SMILES IDX 10 25 12 26 11 27 20 28 21 29 22 30 23 32 24 33 35 34 25 35
REMARK SMILES IDX 34 36 26 37 27 38 28 39 29 40 33 41 30 42 32 43 31 44
REMARK H PARENT 19 7 22 31
ROOT
ATOM      1  N   UNL     1      -2.034   3.253  -0.075  1.00  0.00    -0.345 N 
ATOM      2  C   UNL     1      -1.442   3.634   1.228  1.00  0.00    +0.180 C 
ATOM      3  C   UNL     1      -0.056   2.962   1.434  1.00  0.00    +0.293 C 
ATOM      4  N   UNL     1       0.422   2.349   0.144  1.00  0.00    -0.248 N 
ATOM      5  C   UNL     1       0.295   3.281  -1.028  1.00  0.00    +0.293 C 
ATOM      6  C   UNL     1      -1.204   3.627  -1.246  1.00  0.00    +0.180 C 
ATOM      7  H   UNL     1      -0.252   1.604  -0.081  1.00  0.00    +0.358 HD
ENDROOT
BRANCH   1   8
ATOM      8  C   UNL     1      -2.580   1.959  -0.093  1.00  0.00    +0.142 A 
ATOM      9  C   UNL     1      -6.300   0.925   1.544  1.00  0.00    +0.162 A 
ATOM     10  C   UNL     1      -5.393  -0.026   1.062  1.00  0.00    +0.079 A 
ATOM     11  C   UNL     1      -5.979   2.289   1.461  1.00  0.00    +0.161 A 
ATOM     12  C   UNL     1      -4.171   0.337   0.510  1.00  0.00    +0.082 A 
ATOM     13  C   UNL     1      -4.752   2.666   0.916  1.00  0.00    +0.064 A 
ATOM     14  N   UNL     1      -3.350  -0.623   0.067  1.00  0.00    -0.213 NA
ATOM     15  C   UNL     1      -3.840   1.689   0.448  1.00  0.00    +0.047 A 
ATOM     16  C   UNL     1      -2.192  -0.284  -0.500  1.00  0.00    +0.228 A 
ATOM     17  N   UNL     1      -1.758   0.985  -0.550  1.00  0.00    -0.195 NA
BRANCH   9  18
ATOM     18  O   UNL     1      -7.515   0.626   2.105  1.00  0.00    -0.493 OA
ATOM     19  C   UNL     1      -7.914  -0.737   2.147  1.00  0.00    +0.278 C 
ENDBRANCH   9  18
BRANCH  11  20
ATOM     20  O   UNL     1      -6.910   3.166   1.953  1.00  0.00    -0.493 OA
ATOM     21  C   UNL     1      -6.759   4.542   1.635  1.00  0.00    +0.278 C 
ENDBRANCH  11  20
BRANCH  16  22
ATOM     22  N   UNL     1      -1.339  -1.268  -0.985  1.00  0.00    -0.336 N 
ATOM     23  C   UNL     1      -1.856  -2.649  -0.873  1.00  0.00    +0.148 C 
ATOM     24  C   UNL     1      -0.711  -0.966  -2.284  1.00  0.00    +0.148 C 
ATOM     25  C   UNL     1      -0.799  -3.664  -1.331  1.00  0.00    +0.181 C 
ATOM     26  C   UNL     1       0.289  -2.065  -2.675  1.00  0.00    +0.181 C 
ATOM     27  O   UNL     1      -0.319  -3.360  -2.647  1.00  0.00    -0.378 OA
ENDBRANCH  16  22
ENDBRANCH   1   8
BRANCH   4  28
ATOM     28  C   UNL     1       1.699   1.705   0.261  1.00  0.00    +0.419 C 
ATOM     29  O   UNL     1       2.637   2.475   0.239  1.00  0.00    -0.207 OA
ATOM     30  N   UNL     1       1.670   0.347   0.389  1.00  0.00    -0.275 N 
ATOM     31  H   UNL     1       0.773  -0.126   0.403  1.00  0.00    +0.175 HD
BRANCH  30  32
ATOM     32  C   UNL     1       2.786  -0.506   0.535  1.00  0.00    +0.046 A 
ATOM     33  C   UNL     1       2.522  -1.868   0.731  1.00  0.00    +0.030 A 
ATOM     34  C   UNL     1       4.114  -0.072   0.499  1.00  0.00    +0.030 A 
ATOM     35  C   UNL     1       3.567  -2.782   0.880  1.00  0.00    +0.049 A 
ATOM     36  C   UNL     1       5.162  -0.988   0.649  1.00  0.00    +0.049 A 
ATOM     37  C   UNL     1       4.888  -2.345   0.821  1.00  0.00    +0.127 A 
BRANCH  37  38
ATOM     38  O   UNL     1       5.864  -3.294   1.017  1.00  0.00    -0.457 OA
BRANCH  38  39
ATOM     39  C   UNL     1       6.988  -3.215   0.227  1.00  0.00    +0.127 A 
ATOM     40  C   UNL     1       8.226  -3.234   0.870  1.00  0.00    +0.047 A 
ATOM     41  C   UNL     1       6.916  -3.192  -1.168  1.00  0.00    +0.047 A 
ATOM     42  C   UNL     1       9.398  -3.190   0.115  1.00  0.00    +0.004 A 
ATOM     43  C   UNL     1       8.091  -3.148  -1.919  1.00  0.00    +0.004 A 
ATOM     44  C   UNL     1       9.330  -3.143  -1.278  1.00  0.00    +0.000 A 
ENDBRANCH  38  39
ENDBRANCH  37  38
ENDBRANCH  30  32
ENDBRANCH   4  28
TORSDOF 8
