REMARK SMILES C[NH+]1CCN(c2cccc(-c3cnn4c(N)c(-c5ccc(NS(=O)(=O)c6cccc(Cl)c6Cl)cc5)cnc34)c2)CC1
REMARK SMILES IDX 18 1 19 2 20 3 21 4 34 5 35 6 17 7 11 8 12 9 38 10 13 11
REMARK SMILES IDX 37 12 14 13 36 14 15 15 10 16 6 17 7 18 39 19 8 20 9 21 5 22
REMARK SMILES IDX 2 23 3 24 41 25 4 26 40 27 1 28 16 30 22 33 23 35 24 36
REMARK SMILES IDX 25 37 26 38 27 39 32 40 28 41 30 42 29 43 33 44 31 45
REMARK H PARENT 2 29 16 31 16 32 22 34
ROOT
ATOM      1  C   UNL     1       3.650   0.114   1.063  1.00  0.00    -0.013 A 
ATOM      2  C   UNL     1       4.391   1.261   1.367  1.00  0.00    +0.011 A 
ATOM      3  C   UNL     1       5.700   1.152   1.847  1.00  0.00    +0.027 A 
ATOM      4  C   UNL     1       6.283  -0.102   2.018  1.00  0.00    +0.049 A 
ATOM      5  C   UNL     1       5.542  -1.251   1.739  1.00  0.00    +0.027 A 
ATOM      6  C   UNL     1       4.233  -1.145   1.258  1.00  0.00    +0.011 A 
ENDROOT
BRANCH   1   7
ATOM      7  C   UNL     1       2.271   0.233   0.570  1.00  0.00    +0.042 C 
ATOM      8  C   UNL     1      -1.641   0.626  -0.757  1.00  0.00    +0.047 A 
ATOM      9  C   UNL     1      -1.373   0.075  -2.026  1.00  0.00    +0.146 A 
ATOM     10  C   UNL     1      -0.424   0.593  -0.099  1.00  0.00    +0.165 A 
ATOM     11  N   UNL     1      -0.104  -0.292  -2.187  1.00  0.00    -0.172 NA
ATOM     12  N   UNL     1      -0.047   0.979   1.159  1.00  0.00    -0.236 NA
ATOM     13  N   UNL     1       0.494   0.035  -1.000  1.00  0.00    -0.198 N 
ATOM     14  C   UNL     1       1.205   0.807   1.453  1.00  0.00    +0.126 C 
ATOM     15  C   UNL     1       1.864  -0.144  -0.663  1.00  0.00    +0.136 C 
BRANCH   8  16
ATOM     16  C   UNL     1      -2.892   1.117  -0.202  1.00  0.00    -0.011 A 
ATOM     17  C   UNL     1      -5.333   0.882   0.026  1.00  0.00    +0.038 A 
ATOM     18  C   UNL     1      -5.331   2.051   0.800  1.00  0.00    +0.026 A 
ATOM     19  C   UNL     1      -4.095   0.442  -0.476  1.00  0.00    +0.034 A 
ATOM     20  C   UNL     1      -4.146   2.736   1.081  1.00  0.00    +0.003 A 
ATOM     21  C   UNL     1      -2.931   2.269   0.585  1.00  0.00    +0.009 A 
BRANCH  17  22
ATOM     22  N   UNL     1      -6.502   0.170  -0.257  1.00  0.00    -0.360 N 
ATOM     23  N   UNL     1      -8.959  -1.359  -0.579  1.00  0.00    -0.334 N 
ATOM     24  C   UNL     1      -8.865   0.097  -1.025  1.00  0.00    +0.283 C 
ATOM     25  C   UNL     1      -7.592  -2.030  -0.671  1.00  0.00    +0.283 C 
ATOM     26  C   UNL     1      -7.793   0.875  -0.236  1.00  0.00    +0.178 C 
ATOM     27  C   UNL     1      -6.510  -1.258   0.111  1.00  0.00    +0.178 C 
ATOM     28  C   UNL     1      -9.626  -1.538   0.752  1.00  0.00    +0.332 C 
ATOM     29  H   UNL     1      -9.556  -1.831  -1.269  1.00  0.00    +0.347 HD
ENDBRANCH  17  22
ENDBRANCH   8  16
BRANCH  15  30
ATOM     30  N   UNL     1       2.675  -0.682  -1.642  1.00  0.00    -0.383 N 
ATOM     31  H   UNL     1       3.674  -0.774  -1.514  1.00  0.00    +0.158 HD
ATOM     32  H   UNL     1       2.245  -0.889  -2.543  1.00  0.00    +0.158 HD
ENDBRANCH  15  30
ENDBRANCH   1   7
BRANCH   4  33
ATOM     33  N   UNL     1       7.613  -0.253   2.500  1.00  0.00    -0.280 N 
ATOM     34  H   UNL     1       7.894  -1.163   2.870  1.00  0.00    +0.180 HD
BRANCH  33  35
ATOM     35  S   UNL     1       8.901   0.524   1.733  1.00  0.00    +0.263 S 
ATOM     36  O   UNL     1       8.687   1.954   1.825  1.00  0.00    -0.201 OA
ATOM     37  O   UNL     1      10.122  -0.067   2.232  1.00  0.00    -0.201 OA
BRANCH  35  38
ATOM     38  C   UNL     1       8.733   0.060   0.026  1.00  0.00    +0.107 A 
ATOM     39  C   UNL     1       8.558   1.090  -0.915  1.00  0.00    +0.024 A 
ATOM     40  C   UNL     1       8.781  -1.279  -0.382  1.00  0.00    +0.080 A 
ATOM     41  C   UNL     1       8.422   0.789  -2.267  1.00  0.00    +0.003 A 
ATOM     42  C   UNL     1       8.635  -1.566  -1.751  1.00  0.00    +0.061 A 
ATOM     43  C   UNL     1       8.459  -0.537  -2.684  1.00  0.00    +0.022 A 
ATOM     44 Cl   UNL     1       8.982  -2.583   0.746  1.00  0.00    -0.081 Cl
ATOM     45 Cl   UNL     1       8.647  -3.184  -2.370  1.00  0.00    -0.083 Cl
ENDBRANCH  35  38
ENDBRANCH  33  35
ENDBRANCH   4  33
TORSDOF 7
