REMARK SMILES C[NH+](C)Cc1ccc(-c2cnn3c(-c4cccc(NC(=O)c5cccc(C(F)(F)F)c5)c4)ccnc23)cc1
REMARK SMILES IDX 9 1 10 2 11 3 12 4 13 5 33 6 34 7 35 8 36 9 8 10 5 11 6 12
REMARK SMILES IDX 38 13 7 14 37 15 4 16 2 17 1 18 3 19 14 21 15 22 32 23 16 24
REMARK SMILES IDX 18 25 17 26 19 27 20 28 21 29 22 31 23 32 31 33 24 34 26 35
REMARK SMILES IDX 25 36 27 37 28 38 29 39 30 40
REMARK H PARENT 2 20 19 30
ROOT
ATOM      1  C   UNL     1       2.835  -0.426  -1.093  1.00  0.00    +0.047 A 
ATOM      2  C   UNL     1       2.288  -0.066  -2.339  1.00  0.00    +0.146 A 
ATOM      3  N   UNL     1       0.998  -0.369  -2.456  1.00  0.00    -0.174 NA
ATOM      4  N   UNL     1       0.663  -0.933  -1.262  1.00  0.00    -0.214 N 
ATOM      5  C   UNL     1      -0.593  -1.418  -0.846  1.00  0.00    +0.076 C 
ATOM      6  C   UNL     1      -0.712  -1.942   0.389  1.00  0.00    +0.049 C 
ATOM      7  C   UNL     1       0.516  -1.946   1.219  1.00  0.00    +0.116 C 
ATOM      8  N   UNL     1       1.685  -1.506   0.868  1.00  0.00    -0.236 NA
ATOM      9  C   UNL     1       1.776  -0.987  -0.399  1.00  0.00    +0.163 A 
ENDROOT
BRANCH   1  10
ATOM     10  C   UNL     1       4.180  -0.243  -0.577  1.00  0.00    -0.013 A 
ATOM     11  C   UNL     1       6.788   0.147   0.437  1.00  0.00    +0.006 A 
ATOM     12  C   UNL     1       6.186   1.119  -0.375  1.00  0.00    +0.010 A 
ATOM     13  C   UNL     1       6.081  -1.029   0.720  1.00  0.00    +0.010 A 
ATOM     14  C   UNL     1       4.896   0.923  -0.879  1.00  0.00    +0.009 A 
ATOM     15  C   UNL     1       4.791  -1.219   0.217  1.00  0.00    +0.009 A 
BRANCH  11  16
ATOM     16  C   UNL     1       8.149   0.382   1.031  1.00  0.00    +0.298 C 
BRANCH  16  17
ATOM     17  N   UNL     1       8.129   1.365   2.182  1.00  0.00    -0.336 N 
ATOM     18  C   UNL     1       7.386   0.849   3.384  1.00  0.00    +0.332 C 
ATOM     19  C   UNL     1       9.511   1.825   2.541  1.00  0.00    +0.332 C 
ATOM     20  H   UNL     1       7.609   2.186   1.851  1.00  0.00    +0.347 HD
ENDBRANCH  16  17
ENDBRANCH  11  16
ENDBRANCH   1  10
BRANCH   5  21
ATOM     21  C   UNL     1      -1.785  -1.381  -1.720  1.00  0.00    +0.002 A 
ATOM     22  C   UNL     1      -1.748  -1.936  -3.005  1.00  0.00    +0.010 A 
ATOM     23  C   UNL     1      -2.981  -0.791  -1.270  1.00  0.00    +0.036 A 
ATOM     24  C   UNL     1      -2.880  -1.906  -3.819  1.00  0.00    +0.003 A 
ATOM     25  C   UNL     1      -4.124  -0.767  -2.074  1.00  0.00    +0.042 A 
ATOM     26  C   UNL     1      -4.061  -1.325  -3.355  1.00  0.00    +0.026 A 
BRANCH  25  27
ATOM     27  N   UNL     1      -5.353  -0.200  -1.674  1.00  0.00    -0.322 N 
ATOM     28  C   UNL     1      -5.673   0.311  -0.429  1.00  0.00    +0.255 C 
ATOM     29  O   UNL     1      -4.977   0.274   0.579  1.00  0.00    -0.269 OA
ATOM     30  H   UNL     1      -6.090  -0.221  -2.368  1.00  0.00    +0.170 HD
BRANCH  28  31
ATOM     31  C   UNL     1      -7.031   0.917  -0.325  1.00  0.00    +0.040 A 
ATOM     32  C   UNL     1      -7.604   1.631  -1.385  1.00  0.00    +0.014 A 
ATOM     33  C   UNL     1      -7.729   0.788   0.884  1.00  0.00    +0.027 A 
ATOM     34  C   UNL     1      -8.878   2.184  -1.244  1.00  0.00    +0.001 A 
ATOM     35  C   UNL     1      -9.008   1.348   1.036  1.00  0.00    +0.056 A 
ATOM     36  C   UNL     1      -9.578   2.037  -0.045  1.00  0.00    +0.013 A 
BRANCH  35  37
ATOM     37  C   UNL     1      -9.762   1.179   2.333  1.00  0.00    +0.416 C 
ATOM     38  F   UNL     1      -8.958   1.255   3.429  1.00  0.00    -0.166 F 
ATOM     39  F   UNL     1     -10.732   2.117   2.517  1.00  0.00    -0.166 F 
ATOM     40  F   UNL     1     -10.387  -0.028   2.408  1.00  0.00    -0.166 F 
ENDBRANCH  35  37
ENDBRANCH  28  31
ENDBRANCH  25  27
ENDBRANCH   5  21
TORSDOF 7
