REMARK SMILES C[NH+]1CCN(c2cccc(-c3cnn4c(N)c(-c5ccc(NC(=O)CCC6CCCC6)cc5)cnc34)c2)CC1
REMARK SMILES IDX 18 1 19 2 20 3 21 4 32 5 33 6 17 7 11 8 12 9 36 10 13 11
REMARK SMILES IDX 35 12 14 13 34 14 15 15 10 16 6 17 7 18 37 19 8 20 9 21 5 22
REMARK SMILES IDX 2 23 3 24 39 25 4 26 38 27 1 28 16 30 22 33 23 34 24 35
REMARK SMILES IDX 25 37 26 38 27 39 28 40 31 41 29 42 30 43
REMARK H PARENT 2 29 16 31 16 32 22 36
ROOT
ATOM      1  C   UNL     1       1.093   1.599   0.177  1.00  0.00    -0.013 A 
ATOM      2  C   UNL     1       1.819   2.016  -0.944  1.00  0.00    +0.011 A 
ATOM      3  C   UNL     1       3.119   1.546  -1.163  1.00  0.00    +0.027 A 
ATOM      4  C   UNL     1       3.713   0.644  -0.273  1.00  0.00    +0.041 A 
ATOM      5  C   UNL     1       2.987   0.228   0.844  1.00  0.00    +0.027 A 
ATOM      6  C   UNL     1       1.688   0.701   1.068  1.00  0.00    +0.011 A 
ENDROOT
BRANCH   1   7
ATOM      7  C   UNL     1      -0.279   2.072   0.409  1.00  0.00    +0.042 C 
ATOM      8  C   UNL     1      -4.181   3.315   1.119  1.00  0.00    +0.047 A 
ATOM      9  C   UNL     1      -3.828   4.678   1.220  1.00  0.00    +0.146 A 
ATOM     10  C   UNL     1      -2.985   2.669   0.845  1.00  0.00    +0.165 A 
ATOM     11  N   UNL     1      -2.531   4.906   1.032  1.00  0.00    -0.172 NA
ATOM     12  N   UNL     1      -2.670   1.349   0.646  1.00  0.00    -0.236 NA
ATOM     13  N   UNL     1      -1.999   3.667   0.817  1.00  0.00    -0.198 N 
ATOM     14  C   UNL     1      -1.411   1.093   0.453  1.00  0.00    +0.126 C 
ATOM     15  C   UNL     1      -0.626   3.364   0.600  1.00  0.00    +0.136 C 
BRANCH   8  16
ATOM     16  C   UNL     1      -5.484   2.684   1.289  1.00  0.00    -0.011 A 
ATOM     17  C   UNL     1      -7.082   0.892   0.740  1.00  0.00    +0.038 A 
ATOM     18  C   UNL     1      -7.995   1.494   1.619  1.00  0.00    +0.026 A 
ATOM     19  C   UNL     1      -5.834   1.520   0.583  1.00  0.00    +0.034 A 
ATOM     20  C   UNL     1      -7.672   2.655   2.324  1.00  0.00    +0.003 A 
ATOM     21  C   UNL     1      -6.421   3.245   2.162  1.00  0.00    +0.009 A 
BRANCH  17  22
ATOM     22  N   UNL     1      -7.427  -0.278   0.054  1.00  0.00    -0.360 N 
ATOM     23  N   UNL     1      -7.829  -2.859  -1.185  1.00  0.00    -0.334 N 
ATOM     24  C   UNL     1      -8.630  -2.457   0.049  1.00  0.00    +0.283 C 
ATOM     25  C   UNL     1      -7.512  -1.628  -2.029  1.00  0.00    +0.283 C 
ATOM     26  C   UNL     1      -7.860  -1.416   0.886  1.00  0.00    +0.178 C 
ATOM     27  C   UNL     1      -6.727  -0.594  -1.201  1.00  0.00    +0.178 C 
ATOM     28  C   UNL     1      -8.511  -3.929  -1.978  1.00  0.00    +0.332 C 
ATOM     29  H   UNL     1      -6.931  -3.234  -0.852  1.00  0.00    +0.347 HD
ENDBRANCH  17  22
ENDBRANCH   8  16
BRANCH  15  30
ATOM     30  N   UNL     1       0.251   4.432   0.625  1.00  0.00    -0.383 N 
ATOM     31  H   UNL     1       1.253   4.293   0.608  1.00  0.00    +0.158 HD
ATOM     32  H   UNL     1      -0.141   5.349   0.837  1.00  0.00    +0.158 HD
ENDBRANCH  15  30
ENDBRANCH   1   7
BRANCH   4  33
ATOM     33  N   UNL     1       5.024   0.217  -0.565  1.00  0.00    -0.326 N 
ATOM     34  C   UNL     1       5.790  -0.702   0.139  1.00  0.00    +0.224 C 
ATOM     35  O   UNL     1       5.439  -1.329   1.131  1.00  0.00    -0.275 OA
ATOM     36  H   UNL     1       5.453   0.623  -1.388  1.00  0.00    +0.169 HD
BRANCH  34  37
ATOM     37  C   UNL     1       7.171  -0.862  -0.481  1.00  0.00    +0.100 C 
BRANCH  37  38
ATOM     38  C   UNL     1       8.033  -1.879   0.265  1.00  0.00    +0.013 C 
BRANCH  38  39
ATOM     39  C   UNL     1       9.393  -2.096  -0.399  1.00  0.00    -0.011 C 
ATOM     40  C   UNL     1      10.300  -0.866  -0.396  1.00  0.00    +0.003 C 
ATOM     41  C   UNL     1      10.246  -3.128   0.335  1.00  0.00    +0.003 C 
ATOM     42  C   UNL     1      11.711  -1.419  -0.586  1.00  0.00    +0.000 C 
ATOM     43  C   UNL     1      11.643  -2.903  -0.229  1.00  0.00    +0.000 C 
ENDBRANCH  38  39
ENDBRANCH  37  38
ENDBRANCH  34  37
ENDBRANCH   4  33
TORSDOF 8
