REMARK SMILES CC(C)(C)NC(=O)[C@@H]1C[NH+](Cc2cccnc2)CC[NH+]1C[C@@H](O)C[C@@H](Cc1ccccc1)C(=O)N[C@H]1c2ccccc2C[C@H]1O
REMARK SMILES IDX 22 1 21 2 20 3 8 4 9 5 10 6 19 7 18 8 6 11 5 12 7 13 2 15
REMARK SMILES IDX 1 16 3 17 4 18 11 19 12 20 13 21 17 22 14 23 16 24 15 25
REMARK SMILES IDX 23 26 24 28 25 29 26 30 27 31 28 32 32 33 29 34 31 35 30 36
REMARK SMILES IDX 33 37 34 38 35 39 36 41 37 42 44 43 38 44 42 45 43 46 39 47
REMARK SMILES IDX 41 48 40 49 45 50
REMARK H PARENT 20 9 10 10 5 14 23 27 35 40 45 51
ROOT
ATOM      1  C   UNL     1      -0.159   2.716   0.277  1.00  0.00    +0.170 C 
ENDROOT
BRANCH   1   2
ATOM      2  C   UNL     1       0.419   1.295   0.111  1.00  0.00    +0.295 C 
BRANCH   2   3
ATOM      3  N   UNL     1       1.609   1.354  -0.846  1.00  0.00    -0.313 N 
ATOM      4  C   UNL     1       1.808   0.016  -1.606  1.00  0.00    +0.329 C 
ATOM      5  C   UNL     1       2.921   0.218  -2.679  1.00  0.00    +0.339 C 
ATOM      6  N   UNL     1       4.221   0.741  -2.052  1.00  0.00    -0.321 N 
ATOM      7  C   UNL     1       2.886   1.877  -0.205  1.00  0.00    +0.325 C 
ATOM      8  C   UNL     1       4.019   2.025  -1.254  1.00  0.00    +0.324 C 
ATOM      9  H   UNL     1       1.277   2.083  -1.511  1.00  0.00    +0.349 HD
ATOM     10  H   UNL     1       4.511   0.005  -1.370  1.00  0.00    +0.348 HD
BRANCH   4  11
ATOM     11  C   UNL     1       2.272  -1.113  -0.667  1.00  0.00    +0.284 C 
ATOM     12  N   UNL     1       1.293  -1.877  -0.088  1.00  0.00    -0.346 N 
ATOM     13  O   UNL     1       3.478  -1.217  -0.426  1.00  0.00    -0.268 OA
ATOM     14  H   UNL     1       0.311  -1.695  -0.290  1.00  0.00    +0.164 HD
BRANCH  12  15
ATOM     15  C   UNL     1       1.546  -2.958   0.896  1.00  0.00    +0.032 C 
ATOM     16  C   UNL     1       0.206  -3.626   1.250  1.00  0.00    +0.034 C 
ATOM     17  C   UNL     1       2.473  -4.034   0.307  1.00  0.00    +0.034 C 
ATOM     18  C   UNL     1       2.154  -2.378   2.182  1.00  0.00    +0.034 C 
ENDBRANCH  12  15
ENDBRANCH   4  11
BRANCH   6  19
ATOM     19  C   UNL     1       5.357   0.816  -3.059  1.00  0.00    +0.301 C 
BRANCH  19  20
ATOM     20  C   UNL     1       6.691   1.046  -2.422  1.00  0.00    +0.025 A 
ATOM     21  C   UNL     1       7.311   0.070  -1.632  1.00  0.00    +0.013 A 
ATOM     22  C   UNL     1       7.350   2.261  -2.574  1.00  0.00    +0.120 A 
ATOM     23  C   UNL     1       8.535   0.349  -1.027  1.00  0.00    +0.021 A 
ATOM     24  N   UNL     1       8.516   2.560  -1.972  1.00  0.00    -0.264 NA
ATOM     25  C   UNL     1       9.095   1.599  -1.222  1.00  0.00    +0.111 A 
ENDBRANCH  19  20
ENDBRANCH   6  19
ENDBRANCH   2   3
ENDBRANCH   1   2
BRANCH   1  26
ATOM     26  O   UNL     1       0.162   3.428  -0.944  1.00  0.00    -0.387 OA
ATOM     27  H   UNL     1      -0.288   4.300  -0.895  1.00  0.00    +0.211 HD
ENDBRANCH   1  26
BRANCH   1  28
ATOM     28  C   UNL     1      -1.680   2.786   0.513  1.00  0.00    +0.051 C 
BRANCH  28  29
ATOM     29  C   UNL     1      -2.200   1.929   1.686  1.00  0.00    +0.085 C 
BRANCH  29  30
ATOM     30  C   UNL     1      -3.502   2.514   2.268  1.00  0.00    +0.049 C 
BRANCH  30  31
ATOM     31  C   UNL     1      -4.026   1.733   3.447  1.00  0.00    -0.047 A 
ATOM     32  C   UNL     1      -5.195   0.967   3.333  1.00  0.00    +0.004 A 
ATOM     33  C   UNL     1      -3.350   1.757   4.676  1.00  0.00    +0.004 A 
ATOM     34  C   UNL     1      -5.669   0.232   4.420  1.00  0.00    +0.000 A 
ATOM     35  C   UNL     1      -3.827   1.021   5.761  1.00  0.00    +0.000 A 
ATOM     36  C   UNL     1      -4.985   0.257   5.633  1.00  0.00    +0.000 A 
ENDBRANCH  30  31
ENDBRANCH  29  30
BRANCH  29  37
ATOM     37  C   UNL     1      -2.366   0.479   1.227  1.00  0.00    +0.224 C 
ATOM     38  O   UNL     1      -1.505  -0.359   1.496  1.00  0.00    -0.275 OA
ATOM     39  N   UNL     1      -3.402   0.224   0.368  1.00  0.00    -0.346 N 
ATOM     40  H   UNL     1      -4.094   0.937   0.182  1.00  0.00    +0.164 HD
BRANCH  39  41
ATOM     41  C   UNL     1      -3.695  -1.119  -0.100  1.00  0.00    +0.141 C 
ATOM     42  C   UNL     1      -4.847  -1.154  -1.070  1.00  0.00    -0.020 A 
ATOM     43  C   UNL     1      -2.562  -1.764  -0.965  1.00  0.00    +0.145 C 
ATOM     44  C   UNL     1      -6.067  -0.495  -0.992  1.00  0.00    +0.006 A 
ATOM     45  C   UNL     1      -4.588  -2.049  -2.118  1.00  0.00    -0.040 A 
ATOM     46  C   UNL     1      -3.259  -2.721  -1.949  1.00  0.00    +0.070 C 
ATOM     47  C   UNL     1      -7.009  -0.714  -2.000  1.00  0.00    +0.000 A 
ATOM     48  C   UNL     1      -5.523  -2.281  -3.113  1.00  0.00    +0.004 A 
ATOM     49  C   UNL     1      -6.737  -1.597  -3.055  1.00  0.00    +0.000 A 
BRANCH  43  50
ATOM     50  O   UNL     1      -1.805  -0.776  -1.716  1.00  0.00    -0.390 OA
ATOM     51  H   UNL     1      -2.481  -0.321  -2.261  1.00  0.00    +0.211 HD
ENDBRANCH  43  50
ENDBRANCH  39  41
ENDBRANCH  29  37
ENDBRANCH  28  29
ENDBRANCH   1  28
TORSDOF 14
