REMARK SMILES CC[C@@H]([C@H](C)O)n1ncn(-c2ccc(N3CCN(c4ccc(OC[C@@H]5CO[C@@](Cn6cncn6)(c6ccc(F)cc6F)C5)cc4)CC3)cc2)c1=O
REMARK SMILES IDX 15 1 16 2 17 3 18 4 46 5 47 6 14 7 11 8 12 9 49 10 13 11
REMARK SMILES IDX 48 12 10 13 7 14 8 15 50 16 9 17 51 18 3 19 2 20 1 21 4 22
REMARK SMILES IDX 5 23 6 24 19 26 20 27 45 28 21 29 44 30 22 31 23 32 24 33
REMARK SMILES IDX 25 34 26 35 43 36 27 37 28 38 29 39 30 40 31 41 34 42 32 43
REMARK SMILES IDX 33 44 35 45 36 46 41 47 37 48 40 49 38 50 42 51 39 52
REMARK H PARENT 6 25
ROOT
ATOM      1  N   UNL     1      -2.836  -0.775  -0.029  1.00  0.00    -0.368 N 
ATOM      2  C   UNL     1      -2.305  -1.014   1.331  1.00  0.00    +0.138 C 
ATOM      3  C   UNL     1      -0.813  -0.627   1.442  1.00  0.00    +0.138 C 
ATOM      4  N   UNL     1      -0.008  -1.241   0.370  1.00  0.00    -0.368 N 
ATOM      5  C   UNL     1      -0.536  -0.996  -0.990  1.00  0.00    +0.138 C 
ATOM      6  C   UNL     1      -2.027  -1.383  -1.103  1.00  0.00    +0.138 C 
ENDROOT
BRANCH   1   7
ATOM      7  C   UNL     1      -4.208  -0.626  -0.174  1.00  0.00    +0.037 A 
ATOM      8  C   UNL     1      -7.049  -0.265  -0.445  1.00  0.00    +0.052 A 
ATOM      9  C   UNL     1      -6.302   0.478   0.473  1.00  0.00    +0.029 A 
ATOM     10  C   UNL     1      -6.348  -1.186  -1.233  1.00  0.00    +0.029 A 
ATOM     11  C   UNL     1      -4.915   0.300   0.601  1.00  0.00    +0.028 A 
ATOM     12  C   UNL     1      -4.958  -1.357  -1.100  1.00  0.00    +0.028 A 
BRANCH   8  13
ATOM     13  N   UNL     1      -8.449  -0.094  -0.579  1.00  0.00    -0.250 N 
ATOM     14  N   UNL     1     -10.562   0.542  -0.383  1.00  0.00    -0.207 N 
ATOM     15  N   UNL     1     -10.531  -0.407  -1.374  1.00  0.00    -0.158 NA
ATOM     16  C   UNL     1      -9.275   0.758   0.136  1.00  0.00    +0.350 C 
ATOM     17  C   UNL     1      -9.276  -0.732  -1.438  1.00  0.00    +0.231 C 
ATOM     18  O   UNL     1      -9.007   1.544   1.032  1.00  0.00    -0.246 OA
BRANCH  14  19
ATOM     19  C   UNL     1     -11.784   1.223   0.036  1.00  0.00    +0.141 C 
BRANCH  19  20
ATOM     20  C   UNL     1     -12.331   2.115  -1.096  1.00  0.00    +0.027 C 
ATOM     21  C   UNL     1     -11.383   3.250  -1.462  1.00  0.00    +0.006 C 
ENDBRANCH  19  20
BRANCH  19  22
ATOM     22  C   UNL     1     -12.855   0.209   0.510  1.00  0.00    +0.136 C 
ATOM     23  C   UNL     1     -12.392  -0.629   1.697  1.00  0.00    +0.040 C 
BRANCH  22  24
ATOM     24  O   UNL     1     -13.228  -0.678  -0.549  1.00  0.00    -0.391 OA
ATOM     25  H   UNL     1     -12.393  -0.879  -1.025  1.00  0.00    +0.211 HD
ENDBRANCH  22  24
ENDBRANCH  19  22
ENDBRANCH  14  19
ENDBRANCH   8  13
ENDBRANCH   1   7
BRANCH   4  26
ATOM     26  C   UNL     1       1.367  -1.381   0.513  1.00  0.00    +0.037 A 
ATOM     27  C   UNL     1       2.116  -0.628   1.429  1.00  0.00    +0.030 A 
ATOM     28  C   UNL     1       2.072  -2.318  -0.255  1.00  0.00    +0.030 A 
ATOM     29  C   UNL     1       3.504  -0.787   1.564  1.00  0.00    +0.048 A 
ATOM     30  C   UNL     1       3.457  -2.483  -0.127  1.00  0.00    +0.048 A 
ATOM     31  C   UNL     1       4.182  -1.716   0.781  1.00  0.00    +0.119 A 
BRANCH  31  32
ATOM     32  O   UNL     1       5.523  -1.972   0.807  1.00  0.00    -0.493 OA
BRANCH  32  33
ATOM     33  C   UNL     1       6.315  -1.202   1.712  1.00  0.00    +0.235 C 
BRANCH  33  34
ATOM     34  C   UNL     1       7.781  -1.612   1.535  1.00  0.00    +0.056 C 
ATOM     35  C   UNL     1       8.694  -0.738   2.359  1.00  0.00    +0.168 C 
ATOM     36  C   UNL     1       8.323  -1.372   0.133  1.00  0.00    +0.052 C 
ATOM     37  O   UNL     1       8.926   0.428   1.562  1.00  0.00    -0.368 OA
ATOM     38  C   UNL     1       8.888   0.070   0.156  1.00  0.00    +0.116 C 
BRANCH  38  39
ATOM     39  C   UNL     1       7.938   1.038  -0.594  1.00  0.00    +0.186 C 
BRANCH  39  40
ATOM     40  N   UNL     1       8.297   2.439  -0.490  1.00  0.00    -0.250 N 
ATOM     41  C   UNL     1       9.143   3.147  -1.288  1.00  0.00    +0.219 A 
ATOM     42  N   UNL     1       7.671   3.252   0.384  1.00  0.00    -0.160 NA
ATOM     43  N   UNL     1       9.140   4.408  -0.923  1.00  0.00    -0.224 NA
ATOM     44  C   UNL     1       8.236   4.428   0.099  1.00  0.00    +0.246 A 
ENDBRANCH  39  40
ENDBRANCH  38  39
BRANCH  38  45
ATOM     45  C   UNL     1      10.301   0.118  -0.429  1.00  0.00    +0.022 A 
ATOM     46  C   UNL     1      11.378   0.680   0.280  1.00  0.00    +0.013 A 
ATOM     47  C   UNL     1      10.556  -0.377  -1.719  1.00  0.00    +0.132 A 
ATOM     48  C   UNL     1      12.656   0.725  -0.283  1.00  0.00    +0.040 A 
ATOM     49  C   UNL     1      11.825  -0.339  -2.286  1.00  0.00    +0.078 A 
ATOM     50  C   UNL     1      12.867   0.212  -1.557  1.00  0.00    +0.126 A 
ATOM     51  F   UNL     1       9.550  -0.889  -2.442  1.00  0.00    -0.206 F 
ATOM     52  F   UNL     1      14.094   0.257  -2.092  1.00  0.00    -0.207 F 
ENDBRANCH  38  45
ENDBRANCH  33  34
ENDBRANCH  32  33
ENDBRANCH  31  32
ENDBRANCH   4  26
TORSDOF 13
