REMARK SMILES O=C(NCc1cccc(-c2cn3ccnc3c(NCc3ccncc3)n2)c1)Nc1cccc(C(F)(F)F)c1
REMARK SMILES IDX 4 1 3 2 1 3 2 4 28 5 29 8 30 9 38 10 31 11 33 12 32 13 34 14
REMARK SMILES IDX 35 15 36 16 37 17 5 18 6 19 27 20 7 21 9 22 8 23 10 24 11 25
REMARK SMILES IDX 26 26 12 27 17 28 13 29 16 30 18 31 14 32 15 33 19 35 20 36
REMARK SMILES IDX 21 37 25 38 22 39 24 40 23 41
REMARK H PARENT 3 6 28 7 18 34
ROOT
ATOM      1  C   UNL     1       2.375   1.468  -2.295  1.00  0.00    +0.153 C 
ENDROOT
BRANCH   1   2
ATOM      2  N   UNL     1       2.952   1.503  -0.973  1.00  0.00    -0.334 N 
ATOM      3  O   UNL     1       5.054   1.091  -1.729  1.00  0.00    -0.248 OA
ATOM      4  C   UNL     1       4.300   1.305  -0.789  1.00  0.00    +0.319 C 
ATOM      5  N   UNL     1       4.641   1.375   0.543  1.00  0.00    -0.308 N 
ATOM      6  H   UNL     1       2.354   1.736  -0.196  1.00  0.00    +0.165 HD
ATOM      7  H   UNL     1       3.879   1.526   1.184  1.00  0.00    +0.171 HD
BRANCH   5   8
ATOM      8  C   UNL     1       5.922   1.241   1.115  1.00  0.00    +0.043 A 
ATOM      9  C   UNL     1       6.010   1.329   2.510  1.00  0.00    +0.026 A 
ATOM     10  C   UNL     1       7.090   1.031   0.378  1.00  0.00    +0.039 A 
ATOM     11  C   UNL     1       7.241   1.205   3.158  1.00  0.00    +0.003 A 
ATOM     12  C   UNL     1       8.338   0.909   1.018  1.00  0.00    +0.058 A 
ATOM     13  C   UNL     1       8.400   0.994   2.415  1.00  0.00    +0.013 A 
BRANCH  12  14
ATOM     14  C   UNL     1       9.580   0.668   0.196  1.00  0.00    +0.416 C 
ATOM     15  F   UNL     1       9.692   1.520  -0.860  1.00  0.00    -0.166 F 
ATOM     16  F   UNL     1      10.734   0.812   0.909  1.00  0.00    -0.166 F 
ATOM     17  F   UNL     1       9.624  -0.589  -0.326  1.00  0.00    -0.166 F 
ENDBRANCH  12  14
ENDBRANCH   5   8
ENDBRANCH   1   2
BRANCH   1  18
ATOM     18  C   UNL     1       0.877   1.581  -2.223  1.00  0.00    -0.028 A 
ATOM     19  C   UNL     1       0.249   2.826  -2.350  1.00  0.00    +0.005 A 
ATOM     20  C   UNL     1       0.093   0.443  -1.967  1.00  0.00    +0.016 A 
ATOM     21  C   UNL     1      -1.136   2.931  -2.233  1.00  0.00    +0.001 A 
ATOM     22  C   UNL     1      -1.304   0.533  -1.859  1.00  0.00    +0.002 A 
ATOM     23  C   UNL     1      -1.905   1.793  -1.985  1.00  0.00    +0.010 A 
BRANCH  22  24
ATOM     24  C   UNL     1      -2.144  -0.656  -1.584  1.00  0.00    +0.089 C 
ATOM     25  C   UNL     1      -1.930  -1.798  -2.270  1.00  0.00    +0.122 C 
ATOM     26  N   UNL     1      -3.154  -0.517  -0.636  1.00  0.00    -0.226 NA
ATOM     27  N   UNL     1      -2.740  -2.881  -2.002  1.00  0.00    -0.302 N 
ATOM     28  C   UNL     1      -3.937  -1.538  -0.366  1.00  0.00    +0.170 C 
ATOM     29  C   UNL     1      -2.781  -4.151  -2.508  1.00  0.00    +0.113 A 
ATOM     30  C   UNL     1      -3.735  -2.792  -1.070  1.00  0.00    +0.180 A 
ATOM     31  N   UNL     1      -4.935  -1.420   0.569  1.00  0.00    -0.363 N 
ATOM     32  C   UNL     1      -3.816  -4.769  -1.838  1.00  0.00    +0.132 A 
ATOM     33  N   UNL     1      -4.411  -3.915  -0.939  1.00  0.00    -0.234 NA
ATOM     34  H   UNL     1      -5.508  -2.242   0.734  1.00  0.00    +0.162 HD
BRANCH  31  35
ATOM     35  C   UNL     1      -5.206  -0.224   1.316  1.00  0.00    +0.150 C 
BRANCH  35  36
ATOM     36  C   UNL     1      -6.368  -0.461   2.245  1.00  0.00    -0.026 A 
ATOM     37  C   UNL     1      -6.162  -0.962   3.535  1.00  0.00    +0.025 A 
ATOM     38  C   UNL     1      -7.680  -0.234   1.822  1.00  0.00    +0.025 A 
ATOM     39  C   UNL     1      -7.264  -1.188   4.343  1.00  0.00    +0.111 A 
ATOM     40  C   UNL     1      -8.717  -0.492   2.704  1.00  0.00    +0.111 A 
ATOM     41  N   UNL     1      -8.537  -0.960   3.957  1.00  0.00    -0.265 NA
ENDBRANCH  35  36
ENDBRANCH  31  35
ENDBRANCH  22  24
ENDBRANCH   1  18
TORSDOF 7
