REMARK SMILES Cc1nc2c(-c3cccc(N4CC[NH+](C)CC4)c3)cnn2c(N)c1-c1ccc(NC(=O)OCC(C)C)cc1
REMARK SMILES IDX 25 1 26 2 27 3 28 4 37 5 38 6 24 7 2 8 3 9 4 10 22 11 5 12
REMARK SMILES IDX 21 13 19 14 20 15 1 16 23 17 6 20 7 21 18 22 8 23 10 24 9 25
REMARK SMILES IDX 11 26 12 27 17 28 13 29 16 30 14 31 15 32 29 34 30 35 31 36
REMARK SMILES IDX 32 38 33 39 34 40 35 41 36 42
REMARK H PARENT 23 18 23 19 14 33 29 37
ROOT
ATOM      1  C   UNL     1       2.758  -0.009   0.596  1.00  0.00    -0.013 A 
ATOM      2  C   UNL     1       3.601  -0.725   1.450  1.00  0.00    +0.011 A 
ATOM      3  C   UNL     1       4.990  -0.636   1.305  1.00  0.00    +0.027 A 
ATOM      4  C   UNL     1       5.554   0.171   0.310  1.00  0.00    +0.044 A 
ATOM      5  C   UNL     1       4.708   0.891  -0.536  1.00  0.00    +0.027 A 
ATOM      6  C   UNL     1       3.319   0.804  -0.394  1.00  0.00    +0.011 A 
ENDROOT
BRANCH   1   7
ATOM      7  C   UNL     1       1.299  -0.092   0.748  1.00  0.00    +0.045 C 
ATOM      8  C   UNL     1       0.474  -1.104  -0.015  1.00  0.00    +0.051 C 
ATOM      9  N   UNL     1      -0.820  -1.234   0.067  1.00  0.00    -0.232 NA
ATOM     10  C   UNL     1      -1.476  -0.387   0.915  1.00  0.00    +0.165 A 
ATOM     11  C   UNL     1       0.615   0.734   1.572  1.00  0.00    +0.137 C 
ATOM     12  C   UNL     1      -2.815  -0.250   1.237  1.00  0.00    +0.047 A 
ATOM     13  N   UNL     1      -0.793   0.584   1.656  1.00  0.00    -0.198 N 
ATOM     14  C   UNL     1      -2.850   0.810   2.163  1.00  0.00    +0.146 A 
ATOM     15  N   UNL     1      -1.652   1.329   2.420  1.00  0.00    -0.172 NA
ATOM     16  C   UNL     1       1.198  -2.045  -0.954  1.00  0.00    +0.067 C 
BRANCH  11  17
ATOM     17  N   UNL     1       1.178   1.728   2.349  1.00  0.00    -0.383 N 
ATOM     18  H   UNL     1       0.551   2.284   2.929  1.00  0.00    +0.158 HD
ATOM     19  H   UNL     1       2.173   1.910   2.337  1.00  0.00    +0.158 HD
ENDBRANCH  11  17
BRANCH  12  20
ATOM     20  C   UNL     1      -3.904  -1.042   0.689  1.00  0.00    -0.011 A 
ATOM     21  C   UNL     1      -3.773  -2.420   0.507  1.00  0.00    +0.009 A 
ATOM     22  C   UNL     1      -5.118  -0.420   0.344  1.00  0.00    +0.034 A 
ATOM     23  C   UNL     1      -4.834  -3.161  -0.006  1.00  0.00    +0.003 A 
ATOM     24  C   UNL     1      -6.199  -1.141  -0.192  1.00  0.00    +0.038 A 
ATOM     25  C   UNL     1      -6.030  -2.525  -0.347  1.00  0.00    +0.026 A 
BRANCH  24  26
ATOM     26  N   UNL     1      -7.403  -0.531  -0.555  1.00  0.00    -0.360 N 
ATOM     27  C   UNL     1      -7.787   0.738   0.081  1.00  0.00    +0.178 C 
ATOM     28  C   UNL     1      -7.866  -0.758  -1.937  1.00  0.00    +0.178 C 
ATOM     29  C   UNL     1      -9.302   0.989  -0.053  1.00  0.00    +0.283 C 
ATOM     30  C   UNL     1      -9.379  -0.492  -2.068  1.00  0.00    +0.283 C 
ATOM     31  N   UNL     1      -9.736   0.883  -1.512  1.00  0.00    -0.334 N 
ATOM     32  C   UNL     1     -11.186   1.207  -1.695  1.00  0.00    +0.332 C 
ATOM     33  H   UNL     1      -9.189   1.574  -2.042  1.00  0.00    +0.347 HD
ENDBRANCH  24  26
ENDBRANCH  12  20
ENDBRANCH   1   7
BRANCH   4  34
ATOM     34  N   UNL     1       6.955   0.207   0.228  1.00  0.00    -0.291 N 
ATOM     35  C   UNL     1       7.738   0.908  -0.645  1.00  0.00    +0.411 C 
ATOM     36  O   UNL     1       7.383   1.654  -1.544  1.00  0.00    -0.224 OA
ATOM     37  H   UNL     1       7.489  -0.345   0.885  1.00  0.00    +0.173 HD
BRANCH  35  38
ATOM     38  O   UNL     1       9.037   0.636  -0.349  1.00  0.00    -0.449 OA
BRANCH  38  39
ATOM     39  C   UNL     1       9.991   1.303  -1.187  1.00  0.00    +0.238 C 
BRANCH  39  40
ATOM     40  C   UNL     1      11.418   0.925  -0.764  1.00  0.00    +0.021 C 
ATOM     41  C   UNL     1      11.705   1.359   0.674  1.00  0.00    +0.011 C 
ATOM     42  C   UNL     1      11.663  -0.577  -0.916  1.00  0.00    +0.011 C 
ENDBRANCH  39  40
ENDBRANCH  38  39
ENDBRANCH  35  38
ENDBRANCH   4  34
TORSDOF 8
