REMARK SMILES C[NH+]1CC[NH+](Cc2ccc(-c3cnn4c(-c5cccc(NC(=O)c6cccc(C(F)(F)F)c6)c5)ccnc34)cc2)CC1
REMARK SMILES IDX 11 1 12 2 13 3 14 4 15 5 35 6 36 7 37 8 38 9 10 10 7 11 8 12
REMARK SMILES IDX 40 13 9 14 39 15 6 16 5 17 2 18 3 19 42 20 4 21 41 22 1 23
REMARK SMILES IDX 16 26 17 27 34 28 18 29 20 30 19 31 21 32 22 33 23 34 24 36
REMARK SMILES IDX 25 37 33 38 26 39 28 40 27 41 29 42 30 43 31 44 32 45
REMARK H PARENT 2 24 5 25 21 35
ROOT
ATOM      1  C   UNL     1      -1.013  -0.078  -1.512  1.00  0.00    +0.047 A 
ATOM      2  C   UNL     1      -0.196  -0.053  -2.656  1.00  0.00    +0.146 A 
ATOM      3  N   UNL     1       1.025   0.415  -2.416  1.00  0.00    -0.174 NA
ATOM      4  N   UNL     1       1.043   0.688  -1.082  1.00  0.00    -0.214 N 
ATOM      5  C   UNL     1       2.110   1.170  -0.298  1.00  0.00    +0.076 C 
ATOM      6  C   UNL     1       1.902   1.400   1.012  1.00  0.00    +0.049 C 
ATOM      7  C   UNL     1       0.538   1.115   1.520  1.00  0.00    +0.116 C 
ATOM      8  N   UNL     1      -0.466   0.665   0.830  1.00  0.00    -0.236 NA
ATOM      9  C   UNL     1      -0.215   0.426  -0.499  1.00  0.00    +0.163 A 
ENDROOT
BRANCH   1  10
ATOM     10  C   UNL     1      -2.392  -0.501  -1.357  1.00  0.00    -0.013 A 
ATOM     11  C   UNL     1      -5.082  -1.290  -1.045  1.00  0.00    +0.006 A 
ATOM     12  C   UNL     1      -4.116  -1.667  -0.102  1.00  0.00    +0.010 A 
ATOM     13  C   UNL     1      -4.683  -0.544  -2.164  1.00  0.00    +0.010 A 
ATOM     14  C   UNL     1      -2.786  -1.271  -0.257  1.00  0.00    +0.009 A 
ATOM     15  C   UNL     1      -3.348  -0.157  -2.319  1.00  0.00    +0.009 A 
BRANCH  11  16
ATOM     16  C   UNL     1      -6.528  -1.629  -0.826  1.00  0.00    +0.299 C 
BRANCH  16  17
ATOM     17  N   UNL     1      -7.338  -0.419  -0.350  1.00  0.00    -0.322 N 
ATOM     18  N   UNL     1      -9.212   1.025   1.437  1.00  0.00    -0.328 N 
ATOM     19  C   UNL     1      -7.714   1.303   1.486  1.00  0.00    +0.324 C 
ATOM     20  C   UNL     1      -9.666   0.506   0.078  1.00  0.00    +0.324 C 
ATOM     21  C   UNL     1      -6.875   0.088   1.020  1.00  0.00    +0.324 C 
ATOM     22  C   UNL     1      -8.833  -0.713  -0.392  1.00  0.00    +0.324 C 
ATOM     23  C   UNL     1      -9.718   0.209   2.604  1.00  0.00    +0.333 C 
ATOM     24  H   UNL     1      -9.673   1.943   1.559  1.00  0.00    +0.348 HD
ATOM     25  H   UNL     1      -7.121   0.312  -1.044  1.00  0.00    +0.348 HD
ENDBRANCH  16  17
ENDBRANCH  11  16
ENDBRANCH   1  10
BRANCH   5  26
ATOM     26  C   UNL     1       3.451   1.435  -0.863  1.00  0.00    +0.002 A 
ATOM     27  C   UNL     1       3.611   2.254  -1.986  1.00  0.00    +0.010 A 
ATOM     28  C   UNL     1       4.594   0.864  -0.272  1.00  0.00    +0.036 A 
ATOM     29  C   UNL     1       4.882   2.498  -2.506  1.00  0.00    +0.003 A 
ATOM     30  C   UNL     1       5.873   1.114  -0.778  1.00  0.00    +0.042 A 
ATOM     31  C   UNL     1       6.006   1.930  -1.905  1.00  0.00    +0.026 A 
BRANCH  30  32
ATOM     32  N   UNL     1       7.053   0.575  -0.223  1.00  0.00    -0.322 N 
ATOM     33  C   UNL     1       7.168  -0.157   0.946  1.00  0.00    +0.255 C 
ATOM     34  O   UNL     1       6.282  -0.372   1.765  1.00  0.00    -0.269 OA
ATOM     35  H   UNL     1       7.909   0.797  -0.715  1.00  0.00    +0.170 HD
BRANCH  33  36
ATOM     36  C   UNL     1       8.536  -0.679   1.227  1.00  0.00    +0.040 A 
ATOM     37  C   UNL     1       8.974  -0.728   2.555  1.00  0.00    +0.014 A 
ATOM     38  C   UNL     1       9.368  -1.150   0.202  1.00  0.00    +0.027 A 
ATOM     39  C   UNL     1      10.245  -1.218   2.856  1.00  0.00    +0.001 A 
ATOM     40  C   UNL     1      10.654  -1.639   0.496  1.00  0.00    +0.056 A 
ATOM     41  C   UNL     1      11.081  -1.669   1.833  1.00  0.00    +0.013 A 
BRANCH  40  42
ATOM     42  C   UNL     1      11.539  -2.166  -0.609  1.00  0.00    +0.416 C 
ATOM     43  F   UNL     1      12.865  -2.111  -0.311  1.00  0.00    -0.166 F 
ATOM     44  F   UNL     1      11.386  -1.471  -1.771  1.00  0.00    -0.166 F 
ATOM     45  F   UNL     1      11.269  -3.465  -0.910  1.00  0.00    -0.166 F 
ENDBRANCH  40  42
ENDBRANCH  33  36
ENDBRANCH  30  32
ENDBRANCH   5  26
TORSDOF 7
