REMARK SMILES O=C(Nc1cccc(-c2cn3ccnc3c(NCc3ccncc3)n2)c1)c1cccc(C(F)(F)F)c1
REMARK SMILES IDX 4 1 5 2 6 3 7 4 8 5 26 6 3 7 1 8 2 9 27 11 28 12 36 13 29 14
REMARK SMILES IDX 31 15 30 16 32 17 33 18 34 19 35 20 9 21 10 22 25 23 11 24
REMARK SMILES IDX 16 25 12 26 15 27 17 28 13 29 14 30 18 32 19 33 20 34 24 35
REMARK SMILES IDX 21 36 23 37 22 38
REMARK H PARENT 3 10 17 31
ROOT
ATOM      1  C   UNL     1       2.105   1.554   0.851  1.00  0.00    +0.042 A 
ATOM      2  C   UNL     1       1.644   2.802   1.285  1.00  0.00    +0.026 A 
ATOM      3  C   UNL     1       0.297   2.992   1.595  1.00  0.00    +0.003 A 
ATOM      4  C   UNL     1      -0.600   1.932   1.478  1.00  0.00    +0.010 A 
ATOM      5  C   UNL     1      -0.166   0.668   1.055  1.00  0.00    +0.004 A 
ATOM      6  C   UNL     1       1.194   0.499   0.732  1.00  0.00    +0.036 A 
ENDROOT
BRANCH   1   7
ATOM      7  N   UNL     1       3.482   1.443   0.560  1.00  0.00    -0.322 N 
ATOM      8  O   UNL     1       3.688  -0.778  -0.133  1.00  0.00    -0.269 OA
ATOM      9  C   UNL     1       4.163   0.320   0.128  1.00  0.00    +0.255 C 
ATOM     10  H   UNL     1       4.015   2.298   0.655  1.00  0.00    +0.170 HD
BRANCH   9  11
ATOM     11  C   UNL     1       5.630   0.507  -0.056  1.00  0.00    +0.040 A 
ATOM     12  C   UNL     1       6.388   1.296   0.818  1.00  0.00    +0.014 A 
ATOM     13  C   UNL     1       6.260  -0.162  -1.115  1.00  0.00    +0.027 A 
ATOM     14  C   UNL     1       7.762   1.435   0.616  1.00  0.00    +0.001 A 
ATOM     15  C   UNL     1       7.640  -0.020  -1.330  1.00  0.00    +0.056 A 
ATOM     16  C   UNL     1       8.384   0.783  -0.451  1.00  0.00    +0.013 A 
BRANCH  15  17
ATOM     17  C   UNL     1       8.316  -0.755  -2.463  1.00  0.00    +0.416 C 
ATOM     18  F   UNL     1       7.524  -0.883  -3.562  1.00  0.00    -0.166 F 
ATOM     19  F   UNL     1       8.685  -2.017  -2.113  1.00  0.00    -0.166 F 
ATOM     20  F   UNL     1       9.451  -0.138  -2.894  1.00  0.00    -0.166 F 
ENDBRANCH  15  17
ENDBRANCH   9  11
ENDBRANCH   1   7
BRANCH   5  21
ATOM     21  C   UNL     1      -1.149  -0.439   0.927  1.00  0.00    +0.089 C 
ATOM     22  C   UNL     1      -0.793  -1.700   1.252  1.00  0.00    +0.122 C 
ATOM     23  N   UNL     1      -2.431  -0.105   0.494  1.00  0.00    -0.226 NA
ATOM     24  N   UNL     1      -1.735  -2.698   1.130  1.00  0.00    -0.302 N 
ATOM     25  C   UNL     1      -3.343  -1.042   0.369  1.00  0.00    +0.170 C 
ATOM     26  C   UNL     1      -1.690  -4.044   1.369  1.00  0.00    +0.113 A 
ATOM     27  C   UNL     1      -2.999  -2.414   0.698  1.00  0.00    +0.180 A 
ATOM     28  N   UNL     1      -4.607  -0.729  -0.065  1.00  0.00    -0.363 N 
ATOM     29  C   UNL     1      -2.953  -4.505   1.061  1.00  0.00    +0.132 A 
ATOM     30  N   UNL     1      -3.771  -3.481   0.643  1.00  0.00    -0.234 NA
ATOM     31  H   UNL     1      -5.266  -1.497  -0.147  1.00  0.00    +0.162 HD
BRANCH  28  32
ATOM     32  C   UNL     1      -5.027   0.592  -0.440  1.00  0.00    +0.150 C 
BRANCH  32  33
ATOM     33  C   UNL     1      -6.473   0.561  -0.862  1.00  0.00    -0.026 A 
ATOM     34  C   UNL     1      -6.824   0.332  -2.195  1.00  0.00    +0.025 A 
ATOM     35  C   UNL     1      -7.496   0.712   0.080  1.00  0.00    +0.025 A 
ATOM     36  C   UNL     1      -8.169   0.287  -2.529  1.00  0.00    +0.111 A 
ATOM     37  C   UNL     1      -8.811   0.650  -0.353  1.00  0.00    +0.111 A 
ATOM     38  N   UNL     1      -9.170   0.446  -1.638  1.00  0.00    -0.265 NA
ENDBRANCH  32  33
ENDBRANCH  28  32
ENDBRANCH   5  21
TORSDOF 6
