REMARK SMILES O=C(Nc1cccc(-c2cn3ccnc3c(OCc3ccncc3)n2)c1)Nc1cccc(C(F)(F)F)c1
REMARK SMILES IDX 4 1 5 2 6 3 7 4 8 5 26 6 3 7 1 8 2 9 27 10 28 13 29 14 37 15
REMARK SMILES IDX 30 16 32 17 31 18 33 19 34 20 35 21 36 22 9 23 10 24 25 25
REMARK SMILES IDX 11 26 16 27 12 28 15 29 13 30 14 31 17 32 18 33 19 34 20 35
REMARK SMILES IDX 24 36 21 37 23 38 22 39
REMARK H PARENT 3 11 27 12
ROOT
ATOM      1  C   UNL     1       1.323  -1.205  -1.019  1.00  0.00    +0.043 A 
ATOM      2  C   UNL     1       2.334  -2.054  -1.453  1.00  0.00    +0.026 A 
ATOM      3  C   UNL     1       2.082  -3.427  -1.593  1.00  0.00    +0.003 A 
ATOM      4  C   UNL     1       0.822  -3.963  -1.292  1.00  0.00    +0.010 A 
ATOM      5  C   UNL     1      -0.203  -3.122  -0.861  1.00  0.00    +0.004 A 
ATOM      6  C   UNL     1       0.068  -1.749  -0.750  1.00  0.00    +0.036 A 
ENDROOT
BRANCH   1   7
ATOM      7  N   UNL     1       1.449   0.176  -0.784  1.00  0.00    -0.308 N 
ATOM      8  O   UNL     1       3.636   0.616  -1.384  1.00  0.00    -0.248 OA
ATOM      9  C   UNL     1       2.560   0.984  -0.931  1.00  0.00    +0.323 C 
ATOM     10  N   UNL     1       2.269   2.264  -0.474  1.00  0.00    -0.308 N 
ATOM     11  H   UNL     1       0.613   0.636  -0.439  1.00  0.00    +0.171 HD
ATOM     12  H   UNL     1       1.349   2.389  -0.069  1.00  0.00    +0.171 HD
BRANCH  10  13
ATOM     13  C   UNL     1       3.108   3.396  -0.470  1.00  0.00    +0.043 A 
ATOM     14  C   UNL     1       4.403   3.413  -0.988  1.00  0.00    +0.026 A 
ATOM     15  C   UNL     1       2.588   4.571   0.090  1.00  0.00    +0.039 A 
ATOM     16  C   UNL     1       5.167   4.583  -0.949  1.00  0.00    +0.003 A 
ATOM     17  C   UNL     1       3.349   5.752   0.144  1.00  0.00    +0.058 A 
ATOM     18  C   UNL     1       4.644   5.747  -0.389  1.00  0.00    +0.013 A 
BRANCH  17  19
ATOM     19  C   UNL     1       2.760   7.007   0.734  1.00  0.00    +0.416 C 
ATOM     20  F   UNL     1       3.699   7.900   1.155  1.00  0.00    -0.166 F 
ATOM     21  F   UNL     1       1.969   6.764   1.816  1.00  0.00    -0.166 F 
ATOM     22  F   UNL     1       1.978   7.680  -0.156  1.00  0.00    -0.166 F 
ENDBRANCH  17  19
ENDBRANCH  10  13
ENDBRANCH   1   7
BRANCH   5  23
ATOM     23  C   UNL     1      -1.562  -3.563  -0.473  1.00  0.00    +0.091 C 
ATOM     24  C   UNL     1      -2.253  -4.459  -1.209  1.00  0.00    +0.122 C 
ATOM     25  N   UNL     1      -2.129  -2.869   0.590  1.00  0.00    -0.209 NA
ATOM     26  N   UNL     1      -3.595  -4.650  -0.917  1.00  0.00    -0.300 N 
ATOM     27  C   UNL     1      -3.402  -2.998   0.807  1.00  0.00    +0.259 C 
ATOM     28  C   UNL     1      -4.549  -5.453  -1.480  1.00  0.00    +0.113 A 
ATOM     29  C   UNL     1      -4.217  -3.918   0.065  1.00  0.00    +0.200 A 
ATOM     30  C   UNL     1      -5.711  -5.164  -0.795  1.00  0.00    +0.132 A 
ATOM     31  N   UNL     1      -5.499  -4.205   0.167  1.00  0.00    -0.232 NA
BRANCH  27  32
ATOM     32  O   UNL     1      -4.081  -2.261   1.724  1.00  0.00    -0.470 OA
BRANCH  32  33
ATOM     33  C   UNL     1      -3.307  -1.506   2.678  1.00  0.00    +0.267 C 
BRANCH  33  34
ATOM     34  C   UNL     1      -2.453  -0.392   2.108  1.00  0.00    -0.008 A 
ATOM     35  C   UNL     1      -1.162  -0.182   2.606  1.00  0.00    +0.027 A 
ATOM     36  C   UNL     1      -2.907   0.447   1.088  1.00  0.00    +0.027 A 
ATOM     37  C   UNL     1      -0.368   0.800   2.031  1.00  0.00    +0.111 A 
ATOM     38  C   UNL     1      -2.036   1.400   0.571  1.00  0.00    +0.111 A 
ATOM     39  N   UNL     1      -0.758   1.577   0.993  1.00  0.00    -0.265 NA
ENDBRANCH  33  34
ENDBRANCH  32  33
ENDBRANCH  27  32
ENDBRANCH   5  23
TORSDOF 7
