REMARK SMILES O=C(Nc1ccc(C(F)(F)F)cc1)Nc1cccc(-c2cn3ccnc3c(NCc3ccncc3)n2)c1
REMARK SMILES IDX 15 1 16 2 17 3 18 4 19 5 37 6 14 7 1 8 2 9 3 10 4 13 5 14
REMARK SMILES IDX 13 15 6 16 12 17 7 18 8 19 9 20 10 21 11 22 20 23 21 24
REMARK SMILES IDX 36 25 22 26 27 27 23 28 26 29 28 30 24 31 25 32 29 34 30 35
REMARK SMILES IDX 31 36 35 37 32 38 34 39 33 40
REMARK H PARENT 3 11 14 12 28 33
ROOT
ATOM      1  C   UNL     1       1.576  -0.059   2.257  1.00  0.00    +0.043 A 
ATOM      2  C   UNL     1       1.047  -0.015   3.553  1.00  0.00    +0.026 A 
ATOM      3  C   UNL     1      -0.306  -0.267   3.775  1.00  0.00    +0.003 A 
ATOM      4  C   UNL     1      -1.144  -0.568   2.702  1.00  0.00    +0.010 A 
ATOM      5  C   UNL     1      -0.642  -0.622   1.394  1.00  0.00    +0.004 A 
ATOM      6  C   UNL     1       0.723  -0.347   1.187  1.00  0.00    +0.036 A 
ENDROOT
BRANCH   1   7
ATOM      7  N   UNL     1       2.954   0.215   2.114  1.00  0.00    -0.308 N 
ATOM      8  O   UNL     1       3.336  -0.385  -0.090  1.00  0.00    -0.248 OA
ATOM      9  C   UNL     1       3.725   0.097   0.966  1.00  0.00    +0.323 C 
ATOM     10  N   UNL     1       5.001   0.596   1.191  1.00  0.00    -0.308 N 
ATOM     11  H   UNL     1       5.142   1.084   2.061  1.00  0.00    +0.171 HD
ATOM     12  H   UNL     1       3.444   0.450   2.963  1.00  0.00    +0.171 HD
BRANCH  10  13
ATOM     13  C   UNL     1       6.105   0.574   0.313  1.00  0.00    +0.042 A 
ATOM     14  C   UNL     1       6.103  -0.055  -0.933  1.00  0.00    +0.027 A 
ATOM     15  C   UNL     1       7.273   1.217   0.739  1.00  0.00    +0.027 A 
ATOM     16  C   UNL     1       7.245  -0.036  -1.743  1.00  0.00    +0.015 A 
ATOM     17  C   UNL     1       8.416   1.238  -0.068  1.00  0.00    +0.015 A 
ATOM     18  C   UNL     1       8.411   0.618  -1.325  1.00  0.00    +0.056 A 
BRANCH  18  19
ATOM     19  C   UNL     1       9.648   0.619  -2.189  1.00  0.00    +0.416 C 
ATOM     20  F   UNL     1      10.475  -0.425  -1.909  1.00  0.00    -0.166 F 
ATOM     21  F   UNL     1       9.375   0.536  -3.521  1.00  0.00    -0.166 F 
ATOM     22  F   UNL     1      10.402   1.744  -2.035  1.00  0.00    -0.166 F 
ENDBRANCH  18  19
ENDBRANCH  10  13
ENDBRANCH   1   7
BRANCH   5  23
ATOM     23  C   UNL     1      -1.559  -0.931   0.269  1.00  0.00    +0.089 C 
ATOM     24  C   UNL     1      -1.134  -1.702  -0.755  1.00  0.00    +0.122 C 
ATOM     25  N   UNL     1      -2.854  -0.421   0.343  1.00  0.00    -0.226 NA
ATOM     26  N   UNL     1      -2.016  -1.978  -1.776  1.00  0.00    -0.302 N 
ATOM     27  C   UNL     1      -3.710  -0.671  -0.622  1.00  0.00    +0.170 C 
ATOM     28  C   UNL     1      -1.896  -2.706  -2.928  1.00  0.00    +0.113 A 
ATOM     29  C   UNL     1      -3.291  -1.487  -1.747  1.00  0.00    +0.180 A 
ATOM     30  N   UNL     1      -4.986  -0.168  -0.567  1.00  0.00    -0.363 N 
ATOM     31  C   UNL     1      -3.129  -2.610  -3.541  1.00  0.00    +0.132 A 
ATOM     32  N   UNL     1      -3.999  -1.847  -2.798  1.00  0.00    -0.234 NA
ATOM     33  H   UNL     1      -5.600  -0.392  -1.344  1.00  0.00    +0.162 HD
BRANCH  30  34
ATOM     34  C   UNL     1      -5.480   0.667   0.492  1.00  0.00    +0.150 C 
BRANCH  34  35
ATOM     35  C   UNL     1      -6.917   1.027   0.222  1.00  0.00    -0.026 A 
ATOM     36  C   UNL     1      -7.956   0.198   0.657  1.00  0.00    +0.025 A 
ATOM     37  C   UNL     1      -7.242   2.172  -0.512  1.00  0.00    +0.025 A 
ATOM     38  C   UNL     1      -9.261   0.559   0.362  1.00  0.00    +0.111 A 
ATOM     39  C   UNL     1      -8.578   2.448  -0.756  1.00  0.00    +0.111 A 
ATOM     40  N   UNL     1      -9.595   1.669  -0.331  1.00  0.00    -0.265 NA
ENDBRANCH  34  35
ENDBRANCH  30  34
ENDBRANCH   5  23
TORSDOF 6
