REMARK SMILES Cc1ccc(NC(=O)c2cc(Cl)cc(C(F)(F)F)c2)cc1-c1nc2c(cnn2Cc2ccccc2)[n-]1
REMARK SMILES IDX 1 1 2 2 3 3 4 4 5 5 20 6 21 7 22 8 23 9 36 10 24 11 25 12
REMARK SMILES IDX 28 13 26 14 27 15 29 16 30 17 31 18 35 19 32 20 34 21 33 22
REMARK SMILES IDX 6 23 7 24 8 25 9 27 10 28 19 29 11 30 14 31 13 32 12 33
REMARK SMILES IDX 15 34 16 35 17 36 18 37
REMARK H PARENT 6 26
ROOT
ATOM      1  C   UNL     1       1.660  -2.274   2.144  1.00  0.00    +0.045 C 
ATOM      2  C   UNL     1       0.339  -1.796   1.614  1.00  0.00    -0.044 A 
ATOM      3  C   UNL     1      -0.798  -2.602   1.804  1.00  0.00    +0.006 A 
ATOM      4  C   UNL     1      -2.058  -2.212   1.332  1.00  0.00    +0.026 A 
ATOM      5  C   UNL     1      -2.209  -1.004   0.659  1.00  0.00    +0.042 A 
ATOM      6  C   UNL     1      -1.084  -0.197   0.464  1.00  0.00    +0.034 A 
ATOM      7  C   UNL     1       0.184  -0.578   0.932  1.00  0.00    -0.022 A 
ENDROOT
BRANCH   7   8
ATOM      8  C   UNL     1       1.384   0.442   0.633  1.00  0.00    -0.049 A 
ATOM      9  N   UNL     1       2.713   0.250   1.013  1.00  0.00    -0.419 NA
ATOM     10  N   UNL     1       1.179   1.647  -0.057  1.00  0.00    -0.433 NA
ATOM     11  C   UNL     1       3.367   1.432   0.498  1.00  0.00    +0.053 A 
ATOM     12  C   UNL     1       2.491   2.234  -0.110  1.00  0.00    +0.001 A 
ATOM     13  N   UNL     1       4.575   2.024   0.423  1.00  0.00    -0.265 N 
ATOM     14  C   UNL     1       3.201   3.341  -0.549  1.00  0.00    +0.139 A 
ATOM     15  N   UNL     1       4.514   3.252  -0.216  1.00  0.00    -0.181 NA
BRANCH  13  16
ATOM     16  C   UNL     1       5.803   1.533   1.007  1.00  0.00    +0.180 C 
BRANCH  16  17
ATOM     17  C   UNL     1       6.623   0.737   0.020  1.00  0.00    -0.027 A 
ATOM     18  C   UNL     1       6.250  -0.574  -0.312  1.00  0.00    +0.005 A 
ATOM     19  C   UNL     1       7.756   1.295  -0.589  1.00  0.00    +0.005 A 
ATOM     20  C   UNL     1       7.002  -1.315  -1.224  1.00  0.00    +0.000 A 
ATOM     21  C   UNL     1       8.509   0.551  -1.499  1.00  0.00    +0.000 A 
ATOM     22  C   UNL     1       8.134  -0.755  -1.814  1.00  0.00    +0.000 A 
ENDBRANCH  16  17
ENDBRANCH  13  16
ENDBRANCH   7   8
BRANCH   5  23
ATOM     23  N   UNL     1      -3.430  -0.527   0.140  1.00  0.00    -0.322 N 
ATOM     24  C   UNL     1      -4.672  -1.119   0.226  1.00  0.00    +0.255 C 
ATOM     25  O   UNL     1      -4.973  -2.140   0.833  1.00  0.00    -0.269 OA
ATOM     26  H   UNL     1      -3.358   0.376  -0.314  1.00  0.00    +0.170 HD
BRANCH  24  27
ATOM     27  C   UNL     1      -5.763  -0.393  -0.483  1.00  0.00    +0.042 A 
ATOM     28  C   UNL     1      -5.543   0.262  -1.699  1.00  0.00    +0.034 A 
ATOM     29  C   UNL     1      -7.050  -0.413   0.078  1.00  0.00    +0.027 A 
ATOM     30  C   UNL     1      -6.605   0.907  -2.331  1.00  0.00    +0.042 A 
ATOM     31  C   UNL     1      -8.118   0.245  -0.551  1.00  0.00    +0.058 A 
ATOM     32  C   UNL     1      -7.881   0.904  -1.767  1.00  0.00    +0.033 A 
ATOM     33 Cl   UNL     1      -6.346   1.708  -3.832  1.00  0.00    -0.084 Cl
BRANCH  31  34
ATOM     34  C   UNL     1      -9.503   0.206   0.043  1.00  0.00    +0.416 C 
ATOM     35  F   UNL     1     -10.237   1.315  -0.254  1.00  0.00    -0.166 F 
ATOM     36  F   UNL     1      -9.505   0.115   1.401  1.00  0.00    -0.166 F 
ATOM     37  F   UNL     1     -10.230  -0.852  -0.408  1.00  0.00    -0.166 F 
ENDBRANCH  31  34
ENDBRANCH  24  27
ENDBRANCH   5  23
TORSDOF 6
