REMARK SMILES COc1ccc(C(F)(F)F)cc1NC(=O)Nc1cccc(-c2cn3ccnc3c(NCc3ccncc3)n2)c1
REMARK SMILES IDX 17 1 18 2 19 3 20 4 21 5 39 6 16 7 13 8 14 9 15 10 12 13
REMARK SMILES IDX 3 14 4 15 5 16 11 17 6 18 2 19 1 20 7 21 8 22 9 23 10 24
REMARK SMILES IDX 22 25 23 26 38 27 24 28 29 29 25 30 28 31 30 32 26 33 27 34
REMARK SMILES IDX 31 36 32 37 33 38 37 39 34 40 36 41 35 42
REMARK H PARENT 13 11 16 12 30 35
ROOT
ATOM      1  C   UNL     1      -1.250  -0.512   0.927  1.00  0.00    +0.043 A 
ATOM      2  C   UNL     1      -1.129  -0.430   2.314  1.00  0.00    +0.026 A 
ATOM      3  C   UNL     1       0.111  -0.619   2.929  1.00  0.00    +0.003 A 
ATOM      4  C   UNL     1       1.241  -0.897   2.162  1.00  0.00    +0.010 A 
ATOM      5  C   UNL     1       1.144  -1.001   0.770  1.00  0.00    +0.004 A 
ATOM      6  C   UNL     1      -0.107  -0.793   0.162  1.00  0.00    +0.036 A 
ENDROOT
BRANCH   1   7
ATOM      7  N   UNL     1      -2.459  -0.314   0.225  1.00  0.00    -0.308 N 
ATOM      8  N   UNL     1      -4.636   0.128  -0.267  1.00  0.00    -0.304 N 
ATOM      9  C   UNL     1      -3.721  -0.080   0.751  1.00  0.00    +0.323 C 
ATOM     10  O   UNL     1      -3.994  -0.062   1.944  1.00  0.00    -0.248 OA
ATOM     11  H   UNL     1      -4.293   0.163  -1.217  1.00  0.00    +0.172 HD
ATOM     12  H   UNL     1      -2.402  -0.373  -0.779  1.00  0.00    +0.171 HD
BRANCH   8  13
ATOM     13  C   UNL     1      -6.028   0.353  -0.172  1.00  0.00    +0.085 A 
ATOM     14  C   UNL     1      -6.716   0.583  -1.383  1.00  0.00    +0.142 A 
ATOM     15  C   UNL     1      -8.093   0.816  -1.365  1.00  0.00    +0.049 A 
ATOM     16  C   UNL     1      -8.788   0.819  -0.153  1.00  0.00    +0.017 A 
ATOM     17  C   UNL     1      -6.733   0.355   1.035  1.00  0.00    +0.043 A 
ATOM     18  C   UNL     1      -8.119   0.582   1.056  1.00  0.00    +0.058 A 
BRANCH  14  19
ATOM     19  O   UNL     1      -5.936   0.557  -2.518  1.00  0.00    -0.495 OA
ATOM     20  C   UNL     1      -6.590   0.811  -3.756  1.00  0.00    +0.278 C 
ENDBRANCH  14  19
BRANCH  18  21
ATOM     21  C   UNL     1      -8.860   0.598   2.371  1.00  0.00    +0.416 C 
ATOM     22  F   UNL     1      -8.638   1.738   3.080  1.00  0.00    -0.166 F 
ATOM     23  F   UNL     1     -10.213   0.511   2.224  1.00  0.00    -0.166 F 
ATOM     24  F   UNL     1      -8.513  -0.432   3.191  1.00  0.00    -0.166 F 
ENDBRANCH  18  21
ENDBRANCH   8  13
ENDBRANCH   1   7
BRANCH   5  25
ATOM     25  C   UNL     1       2.353  -1.297  -0.027  1.00  0.00    +0.089 C 
ATOM     26  C   UNL     1       2.320  -2.289  -0.941  1.00  0.00    +0.122 C 
ATOM     27  N   UNL     1       3.492  -0.544   0.238  1.00  0.00    -0.226 NA
ATOM     28  N   UNL     1       3.469  -2.554  -1.654  1.00  0.00    -0.302 N 
ATOM     29  C   UNL     1       4.598  -0.779  -0.433  1.00  0.00    +0.170 C 
ATOM     30  C   UNL     1       3.759  -3.469  -2.629  1.00  0.00    +0.113 A 
ATOM     31  C   UNL     1       4.607  -1.830  -1.436  1.00  0.00    +0.180 A 
ATOM     32  N   UNL     1       5.729  -0.042  -0.189  1.00  0.00    -0.363 N 
ATOM     33  C   UNL     1       5.081  -3.238  -2.953  1.00  0.00    +0.132 A 
ATOM     34  N   UNL     1       5.607  -2.211  -2.205  1.00  0.00    -0.234 NA
ATOM     35  H   UNL     1       6.553  -0.269  -0.738  1.00  0.00    +0.162 HD
BRANCH  32  36
ATOM     36  C   UNL     1       5.810   1.017   0.779  1.00  0.00    +0.150 C 
BRANCH  36  37
ATOM     37  C   UNL     1       7.199   1.598   0.775  1.00  0.00    -0.026 A 
ATOM     38  C   UNL     1       8.204   1.056   1.582  1.00  0.00    +0.025 A 
ATOM     39  C   UNL     1       7.527   2.661  -0.072  1.00  0.00    +0.025 A 
ATOM     40  C   UNL     1       9.474   1.608   1.523  1.00  0.00    +0.111 A 
ATOM     41  C   UNL     1       8.826   3.143  -0.060  1.00  0.00    +0.111 A 
ATOM     42  N   UNL     1       9.806   2.642   0.722  1.00  0.00    -0.265 NA
ENDBRANCH  36  37
ENDBRANCH  32  36
ENDBRANCH   5  25
TORSDOF 7
