REMARK SMILES O=S(=O)(Nc1cccc(-c2cn3ccnc3c(NCc3ccncc3)n2)c1)c1cccc(C(F)(F)F)c1
REMARK SMILES IDX 4 1 2 3 1 4 3 5 28 6 29 7 37 8 30 9 32 10 31 11 33 12 34 13
REMARK SMILES IDX 35 14 36 15 5 16 6 17 27 18 7 19 9 20 8 21 10 22 11 23 26 24
REMARK SMILES IDX 12 25 17 26 13 27 16 28 18 29 14 30 15 31 19 33 20 34 21 35
REMARK SMILES IDX 25 36 22 37 24 38 23 39
REMARK H PARENT 4 2 18 32
ROOT
ATOM      1  N   UNL     1       3.114  -0.366  -3.111  1.00  0.00    -0.280 N 
ATOM      2  H   UNL     1       3.663  -1.110  -3.539  1.00  0.00    +0.180 HD
ENDROOT
BRANCH   1   3
ATOM      3  S   UNL     1       3.956   1.096  -3.038  1.00  0.00    +0.261 S 
ATOM      4  O   UNL     1       3.017   2.194  -2.954  1.00  0.00    -0.201 OA
ATOM      5  O   UNL     1       4.957   1.041  -4.082  1.00  0.00    -0.201 OA
BRANCH   3   6
ATOM      6  C   UNL     1       4.813   0.984  -1.480  1.00  0.00    +0.088 A 
ATOM      7  C   UNL     1       4.270   1.591  -0.344  1.00  0.00    +0.022 A 
ATOM      8  C   UNL     1       6.045   0.323  -1.418  1.00  0.00    +0.035 A 
ATOM      9  C   UNL     1       4.952   1.512   0.869  1.00  0.00    +0.002 A 
ATOM     10  C   UNL     1       6.732   0.234  -0.196  1.00  0.00    +0.057 A 
ATOM     11  C   UNL     1       6.174   0.839   0.943  1.00  0.00    +0.013 A 
BRANCH  10  12
ATOM     12  C   UNL     1       8.067  -0.469  -0.121  1.00  0.00    +0.416 C 
ATOM     13  F   UNL     1       9.099   0.334  -0.493  1.00  0.00    -0.166 F 
ATOM     14  F   UNL     1       8.367  -0.917   1.130  1.00  0.00    -0.166 F 
ATOM     15  F   UNL     1       8.128  -1.563  -0.931  1.00  0.00    -0.166 F 
ENDBRANCH  10  12
ENDBRANCH   3   6
ENDBRANCH   1   3
BRANCH   1  16
ATOM     16  C   UNL     1       2.230  -0.709  -2.051  1.00  0.00    +0.049 A 
ATOM     17  C   UNL     1       2.547  -1.785  -1.223  1.00  0.00    +0.027 A 
ATOM     18  C   UNL     1       1.082   0.049  -1.813  1.00  0.00    +0.037 A 
ATOM     19  C   UNL     1       1.713  -2.100  -0.153  1.00  0.00    +0.003 A 
ATOM     20  C   UNL     1       0.242  -0.242  -0.728  1.00  0.00    +0.004 A 
ATOM     21  C   UNL     1       0.570  -1.334   0.091  1.00  0.00    +0.010 A 
BRANCH  20  22
ATOM     22  C   UNL     1      -0.983   0.548  -0.447  1.00  0.00    +0.089 C 
ATOM     23  C   UNL     1      -0.984   1.885  -0.639  1.00  0.00    +0.122 C 
ATOM     24  N   UNL     1      -2.087  -0.144   0.042  1.00  0.00    -0.226 NA
ATOM     25  N   UNL     1      -2.136   2.586  -0.356  1.00  0.00    -0.302 N 
ATOM     26  C   UNL     1      -3.197   0.505   0.317  1.00  0.00    +0.170 C 
ATOM     27  C   UNL     1      -2.454   3.913  -0.444  1.00  0.00    +0.113 A 
ATOM     28  C   UNL     1      -3.245   1.941   0.115  1.00  0.00    +0.180 A 
ATOM     29  N   UNL     1      -4.296  -0.167   0.790  1.00  0.00    -0.363 N 
ATOM     30  C   UNL     1      -3.763   3.996  -0.015  1.00  0.00    +0.132 A 
ATOM     31  N   UNL     1      -4.253   2.760   0.335  1.00  0.00    -0.234 NA
ATOM     32  H   UNL     1      -5.125   0.389   0.978  1.00  0.00    +0.162 HD
BRANCH  29  33
ATOM     33  C   UNL     1      -4.351  -1.587   0.994  1.00  0.00    +0.150 C 
BRANCH  33  34
ATOM     34  C   UNL     1      -5.709  -1.969   1.523  1.00  0.00    -0.026 A 
ATOM     35  C   UNL     1      -5.970  -1.956   2.897  1.00  0.00    +0.025 A 
ATOM     36  C   UNL     1      -6.750  -2.297   0.650  1.00  0.00    +0.025 A 
ATOM     37  C   UNL     1      -7.243  -2.290   3.333  1.00  0.00    +0.111 A 
ATOM     38  C   UNL     1      -7.988  -2.617   1.184  1.00  0.00    +0.111 A 
ATOM     39  N   UNL     1      -8.256  -2.625   2.507  1.00  0.00    -0.265 NA
ENDBRANCH  33  34
ENDBRANCH  29  33
ENDBRANCH  20  22
ENDBRANCH   1  16
TORSDOF 7
