REMARK SMILES COCCOCC(=O)Nc1ccc(-c2cnn3c(-c4cccc(NC(=O)c5cccc(C(F)(F)F)c5)c4)ccnc23)cc1
REMARK SMILES IDX 10 1 11 2 12 3 13 4 42 5 43 6 9 7 7 8 8 9 6 11 5 12 4 13
REMARK SMILES IDX 3 14 2 15 1 16 14 17 15 18 41 19 16 20 40 21 17 22 39 23
REMARK SMILES IDX 18 24 38 25 19 26 20 27 37 28 21 29 23 30 22 31 24 32 25 33
REMARK SMILES IDX 26 34 27 36 28 37 36 38 29 39 31 40 30 41 32 42 33 43 34 44
REMARK SMILES IDX 35 45
REMARK H PARENT 9 10 24 35
ROOT
ATOM      1  C   UNL     1       5.692   0.139   1.210  1.00  0.00    +0.041 A 
ATOM      2  C   UNL     1       4.922  -0.945   1.626  1.00  0.00    +0.027 A 
ATOM      3  C   UNL     1       3.612  -1.108   1.153  1.00  0.00    +0.011 A 
ATOM      4  C   UNL     1       3.049  -0.191   0.259  1.00  0.00    -0.013 A 
ATOM      5  C   UNL     1       3.827   0.897  -0.155  1.00  0.00    +0.011 A 
ATOM      6  C   UNL     1       5.134   1.060   0.319  1.00  0.00    +0.027 A 
ENDROOT
BRANCH   1   7
ATOM      7  N   UNL     1       7.011   0.376   1.633  1.00  0.00    -0.324 N 
ATOM      8  C   UNL     1       7.791  -0.389   2.483  1.00  0.00    +0.250 C 
ATOM      9  O   UNL     1       7.482  -1.449   3.019  1.00  0.00    -0.272 OA
ATOM     10  H   UNL     1       7.479   1.198   1.251  1.00  0.00    +0.170 HD
BRANCH   8  11
ATOM     11  C   UNL     1       9.159   0.259   2.742  1.00  0.00    +0.260 C 
BRANCH  11  12
ATOM     12  O   UNL     1       9.539   1.191   1.735  1.00  0.00    -0.369 OA
BRANCH  12  13
ATOM     13  C   UNL     1      10.140   0.557   0.598  1.00  0.00    +0.189 C 
BRANCH  13  14
ATOM     14  C   UNL     1       9.991   1.481  -0.611  1.00  0.00    +0.188 C 
BRANCH  14  15
ATOM     15  O   UNL     1       8.616   1.613  -1.001  1.00  0.00    -0.382 OA
ATOM     16  C   UNL     1       8.178   0.559  -1.852  1.00  0.00    +0.195 C 
ENDBRANCH  14  15
ENDBRANCH  13  14
ENDBRANCH  12  13
ENDBRANCH  11  12
ENDBRANCH   8  11
ENDBRANCH   1   7
BRANCH   4  17
ATOM     17  C   UNL     1       1.699  -0.360  -0.257  1.00  0.00    +0.047 A 
ATOM     18  C   UNL     1       1.179  -0.041  -1.527  1.00  0.00    +0.146 A 
ATOM     19  C   UNL     1       0.615  -0.868   0.440  1.00  0.00    +0.163 A 
ATOM     20  N   UNL     1      -0.115  -0.322  -1.657  1.00  0.00    -0.174 NA
ATOM     21  N   UNL     1       0.487  -1.334   1.723  1.00  0.00    -0.236 NA
ATOM     22  N   UNL     1      -0.481  -0.825  -0.444  1.00  0.00    -0.214 N 
ATOM     23  C   UNL     1      -0.697  -1.730   2.073  1.00  0.00    +0.116 C 
ATOM     24  C   UNL     1      -1.756  -1.269  -0.033  1.00  0.00    +0.076 C 
ATOM     25  C   UNL     1      -1.910  -1.736   1.220  1.00  0.00    +0.049 C 
BRANCH  24  26
ATOM     26  C   UNL     1      -2.928  -1.254  -0.938  1.00  0.00    +0.002 A 
ATOM     27  C   UNL     1      -2.856  -1.847  -2.205  1.00  0.00    +0.010 A 
ATOM     28  C   UNL     1      -4.134  -0.648  -0.540  1.00  0.00    +0.036 A 
ATOM     29  C   UNL     1      -3.961  -1.834  -3.054  1.00  0.00    +0.003 A 
ATOM     30  C   UNL     1      -5.250  -0.636  -1.382  1.00  0.00    +0.042 A 
ATOM     31  C   UNL     1      -5.151  -1.232  -2.644  1.00  0.00    +0.026 A 
BRANCH  30  32
ATOM     32  N   UNL     1      -6.491  -0.056  -1.040  1.00  0.00    -0.322 N 
ATOM     33  C   UNL     1      -6.829   0.569   0.147  1.00  0.00    +0.255 C 
ATOM     34  O   UNL     1      -6.097   0.775   1.107  1.00  0.00    -0.269 OA
ATOM     35  H   UNL     1      -7.194  -0.081  -1.767  1.00  0.00    +0.170 HD
BRANCH  33  36
ATOM     36  C   UNL     1      -8.236   1.053   0.223  1.00  0.00    +0.040 A 
ATOM     37  C   UNL     1      -8.491   2.260   0.883  1.00  0.00    +0.014 A 
ATOM     38  C   UNL     1      -9.301   0.316  -0.316  1.00  0.00    +0.027 A 
ATOM     39  C   UNL     1      -9.795   2.744   0.982  1.00  0.00    +0.001 A 
ATOM     40  C   UNL     1     -10.618   0.801  -0.227  1.00  0.00    +0.056 A 
ATOM     41  C   UNL     1     -10.852   2.020   0.430  1.00  0.00    +0.013 A 
BRANCH  40  42
ATOM     42  C   UNL     1     -11.766  -0.003  -0.788  1.00  0.00    +0.416 C 
ATOM     43  F   UNL     1     -11.416  -0.705  -1.903  1.00  0.00    -0.166 F 
ATOM     44  F   UNL     1     -12.832   0.762  -1.150  1.00  0.00    -0.166 F 
ATOM     45  F   UNL     1     -12.240  -0.919   0.098  1.00  0.00    -0.166 F 
ENDBRANCH  40  42
ENDBRANCH  33  36
ENDBRANCH  30  32
ENDBRANCH  24  26
ENDBRANCH   4  17
TORSDOF 11
