REMARK SMILES C[NH+](C)CC(=O)Nc1ccc(-c2cnn3c(-c4cccc(NC(=O)c5cccc(C(F)(F)F)c5)c4)ccnc23)cc1
REMARK SMILES IDX 12 1 13 2 14 3 15 4 16 5 36 6 37 7 38 8 39 9 11 10 8 11 9 12
REMARK SMILES IDX 41 13 10 14 40 15 7 16 5 17 6 18 4 20 2 21 1 22 3 23 17 25
REMARK SMILES IDX 18 26 35 27 19 28 21 29 20 30 22 31 23 32 24 33 25 35 26 36
REMARK SMILES IDX 34 37 27 38 29 39 28 40 30 41 31 42 32 43 33 44
REMARK H PARENT 7 19 2 24 22 34
ROOT
ATOM      1  C   UNL     1      -1.647   0.257   1.300  1.00  0.00    +0.047 A 
ATOM      2  C   UNL     1      -0.934   1.421   1.647  1.00  0.00    +0.146 A 
ATOM      3  N   UNL     1       0.354   1.199   1.892  1.00  0.00    -0.174 NA
ATOM      4  N   UNL     1       0.521  -0.138   1.689  1.00  0.00    -0.214 N 
ATOM      5  C   UNL     1       1.705  -0.896   1.792  1.00  0.00    +0.076 C 
ATOM      6  C   UNL     1       1.655  -2.219   1.549  1.00  0.00    +0.049 C 
ATOM      7  C   UNL     1       0.328  -2.766   1.177  1.00  0.00    +0.116 C 
ATOM      8  N   UNL     1      -0.779  -2.097   1.075  1.00  0.00    -0.236 NA
ATOM      9  C   UNL     1      -0.697  -0.752   1.332  1.00  0.00    +0.163 A 
ENDROOT
BRANCH   1  10
ATOM     10  C   UNL     1      -3.049   0.097   0.948  1.00  0.00    -0.013 A 
ATOM     11  C   UNL     1      -5.780  -0.173   0.252  1.00  0.00    +0.041 A 
ATOM     12  C   UNL     1      -5.116  -1.184   0.957  1.00  0.00    +0.027 A 
ATOM     13  C   UNL     1      -5.071   0.977  -0.095  1.00  0.00    +0.027 A 
ATOM     14  C   UNL     1      -3.766  -1.049   1.302  1.00  0.00    +0.011 A 
ATOM     15  C   UNL     1      -3.718   1.110   0.251  1.00  0.00    +0.011 A 
BRANCH  11  16
ATOM     16  N   UNL     1      -7.138  -0.397  -0.068  1.00  0.00    -0.321 N 
ATOM     17  C   UNL     1      -7.979   0.456  -0.751  1.00  0.00    +0.279 C 
ATOM     18  O   UNL     1      -7.724   1.577  -1.189  1.00  0.00    -0.268 OA
ATOM     19  H   UNL     1      -7.502  -1.287   0.255  1.00  0.00    +0.170 HD
BRANCH  17  20
ATOM     20  C   UNL     1      -9.390  -0.098  -0.978  1.00  0.00    +0.363 C 
BRANCH  20  21
ATOM     21  N   UNL     1     -10.105   0.695  -2.073  1.00  0.00    -0.332 N 
ATOM     22  C   UNL     1      -9.667   0.298  -3.453  1.00  0.00    +0.332 C 
ATOM     23  C   UNL     1     -11.590   0.711  -1.918  1.00  0.00    +0.332 C 
ATOM     24  H   UNL     1      -9.756   1.663  -1.944  1.00  0.00    +0.348 HD
ENDBRANCH  20  21
ENDBRANCH  17  20
ENDBRANCH  11  16
ENDBRANCH   1  10
BRANCH   5  25
ATOM     25  C   UNL     1       3.002  -0.291   2.169  1.00  0.00    +0.002 A 
ATOM     26  C   UNL     1       3.119   0.483   3.329  1.00  0.00    +0.010 A 
ATOM     27  C   UNL     1       4.141  -0.486   1.366  1.00  0.00    +0.036 A 
ATOM     28  C   UNL     1       4.344   1.048   3.681  1.00  0.00    +0.003 A 
ATOM     29  C   UNL     1       5.377   0.064   1.717  1.00  0.00    +0.042 A 
ATOM     30  C   UNL     1       5.467   0.840   2.878  1.00  0.00    +0.026 A 
BRANCH  29  31
ATOM     31  N   UNL     1       6.554  -0.101   0.957  1.00  0.00    -0.322 N 
ATOM     32  C   UNL     1       6.726  -0.909  -0.153  1.00  0.00    +0.255 C 
ATOM     33  O   UNL     1       5.919  -1.709  -0.610  1.00  0.00    -0.269 OA
ATOM     34  H   UNL     1       7.369   0.391   1.302  1.00  0.00    +0.170 HD
BRANCH  32  35
ATOM     35  C   UNL     1       8.063  -0.802  -0.805  1.00  0.00    +0.040 A 
ATOM     36  C   UNL     1       8.632  -1.956  -1.354  1.00  0.00    +0.014 A 
ATOM     37  C   UNL     1       8.736   0.423  -0.909  1.00  0.00    +0.027 A 
ATOM     38  C   UNL     1       9.878  -1.894  -1.979  1.00  0.00    +0.001 A 
ATOM     39  C   UNL     1       9.995   0.493  -1.531  1.00  0.00    +0.056 A 
ATOM     40  C   UNL     1      10.556  -0.678  -2.065  1.00  0.00    +0.013 A 
BRANCH  39  41
ATOM     41  C   UNL     1      10.709   1.817  -1.660  1.00  0.00    +0.416 C 
ATOM     42  F   UNL     1      10.487   2.635  -0.593  1.00  0.00    -0.166 F 
ATOM     43  F   UNL     1      10.309   2.515  -2.757  1.00  0.00    -0.166 F 
ATOM     44  F   UNL     1      12.060   1.694  -1.760  1.00  0.00    -0.166 F 
ENDBRANCH  39  41
ENDBRANCH  32  35
ENDBRANCH  29  31
ENDBRANCH   5  25
TORSDOF 8
