REMARK SMILES CC[NH+]1CC[NH+](Cc2cc(-c3cnn4c(-c5cccc(NC(=O)c6cccc(C(F)(F)F)c6)c5)ccnc34)co2)CC1
REMARK SMILES IDX 11 1 12 2 13 3 14 4 15 5 35 6 36 7 37 8 38 9 10 10 8 11 9 12
REMARK SMILES IDX 40 13 39 14 7 15 6 16 3 17 4 18 42 19 5 20 41 21 2 24 1 25
REMARK SMILES IDX 16 26 17 27 34 28 18 29 20 30 19 31 21 32 22 33 23 34 24 36
REMARK SMILES IDX 25 37 33 38 26 39 28 40 27 41 29 42 30 43 31 44 32 45
REMARK H PARENT 3 22 6 23 21 35
ROOT
ATOM      1  C   UNL     1      -0.968  -2.506  -0.795  1.00  0.00    +0.050 A 
ATOM      2  C   UNL     1      -0.063  -2.745  -1.839  1.00  0.00    +0.146 A 
ATOM      3  N   UNL     1       1.202  -2.780  -1.427  1.00  0.00    -0.174 NA
ATOM      4  N   UNL     1       1.142  -2.567  -0.081  1.00  0.00    -0.214 N 
ATOM      5  C   UNL     1       2.199  -2.487   0.843  1.00  0.00    +0.076 C 
ATOM      6  C   UNL     1       1.916  -2.275   2.143  1.00  0.00    +0.049 C 
ATOM      7  C   UNL     1       0.480  -2.125   2.483  1.00  0.00    +0.116 C 
ATOM      8  N   UNL     1      -0.520  -2.175   1.654  1.00  0.00    -0.236 NA
ATOM      9  C   UNL     1      -0.192  -2.404   0.342  1.00  0.00    +0.163 A 
ENDROOT
BRANCH   1  10
ATOM     10  C   UNL     1      -2.413  -2.382  -0.911  1.00  0.00    +0.026 A 
ATOM     11  C   UNL     1      -4.477  -2.114  -1.737  1.00  0.00    +0.158 A 
ATOM     12  C   UNL     1      -3.154  -2.248  -2.113  1.00  0.00    +0.060 A 
ATOM     13  O   UNL     1      -4.585  -2.178  -0.379  1.00  0.00    -0.463 OA
ATOM     14  C   UNL     1      -3.331  -2.350   0.113  1.00  0.00    +0.204 A 
BRANCH  11  15
ATOM     15  C   UNL     1      -5.732  -1.895  -2.496  1.00  0.00    +0.339 C 
BRANCH  15  16
ATOM     16  N   UNL     1      -6.607  -0.726  -2.006  1.00  0.00    -0.319 N 
ATOM     17  N   UNL     1      -7.512   1.396  -0.152  1.00  0.00    -0.326 N 
ATOM     18  C   UNL     1      -6.725   1.743  -1.418  1.00  0.00    +0.324 C 
ATOM     19  C   UNL     1      -8.310   0.098  -0.316  1.00  0.00    +0.324 C 
ATOM     20  C   UNL     1      -5.814   0.569  -1.857  1.00  0.00    +0.324 C 
ATOM     21  C   UNL     1      -7.398  -1.077  -0.747  1.00  0.00    +0.324 C 
ATOM     22  H   UNL     1      -6.841   1.254   0.621  1.00  0.00    +0.348 HD
ATOM     23  H   UNL     1      -7.284  -0.602  -2.772  1.00  0.00    +0.348 HD
BRANCH  17  24
ATOM     24  C   UNL     1      -8.426   2.532   0.310  1.00  0.00    +0.259 C 
ATOM     25  C   UNL     1      -7.612   3.686   0.863  1.00  0.00    +0.071 C 
ENDBRANCH  17  24
ENDBRANCH  15  16
ENDBRANCH  11  15
ENDBRANCH   1  10
BRANCH   5  26
ATOM     26  C   UNL     1       3.611  -2.618   0.436  1.00  0.00    +0.002 A 
ATOM     27  C   UNL     1       4.071  -3.778  -0.196  1.00  0.00    +0.010 A 
ATOM     28  C   UNL     1       4.516  -1.569   0.682  1.00  0.00    +0.036 A 
ATOM     29  C   UNL     1       5.410  -3.891  -0.567  1.00  0.00    +0.003 A 
ATOM     30  C   UNL     1       5.859  -1.671   0.311  1.00  0.00    +0.042 A 
ATOM     31  C   UNL     1       6.299  -2.844  -0.313  1.00  0.00    +0.026 A 
BRANCH  30  32
ATOM     32  N   UNL     1       6.816  -0.657   0.532  1.00  0.00    -0.322 N 
ATOM     33  C   UNL     1       6.600   0.591   1.090  1.00  0.00    +0.255 C 
ATOM     34  O   UNL     1       5.523   1.065   1.435  1.00  0.00    -0.269 OA
ATOM     35  H   UNL     1       7.752  -0.861   0.205  1.00  0.00    +0.170 HD
BRANCH  33  36
ATOM     36  C   UNL     1       7.818   1.437   1.239  1.00  0.00    +0.040 A 
ATOM     37  C   UNL     1       9.062   0.891   1.581  1.00  0.00    +0.014 A 
ATOM     38  C   UNL     1       7.692   2.822   1.062  1.00  0.00    +0.027 A 
ATOM     39  C   UNL     1      10.173   1.725   1.719  1.00  0.00    +0.001 A 
ATOM     40  C   UNL     1       8.807   3.666   1.191  1.00  0.00    +0.056 A 
ATOM     41  C   UNL     1      10.047   3.102   1.525  1.00  0.00    +0.013 A 
BRANCH  40  42
ATOM     42  C   UNL     1       8.654   5.158   1.014  1.00  0.00    +0.416 C 
ATOM     43  F   UNL     1       9.819   5.781   0.685  1.00  0.00    -0.166 F 
ATOM     44  F   UNL     1       7.767   5.483   0.033  1.00  0.00    -0.166 F 
ATOM     45  F   UNL     1       8.205   5.769   2.144  1.00  0.00    -0.166 F 
ENDBRANCH  40  42
ENDBRANCH  33  36
ENDBRANCH  30  32
ENDBRANCH   5  26
TORSDOF 8
