REMARK SMILES CC[NH+](CC)CCNc1cc(-n2c(Nc3cc(NC(=O)c4cccc(C(F)(F)F)c4)ccc3C)nc3ccccc32)ncn1
REMARK SMILES IDX 12 1 13 2 35 3 36 4 37 5 38 6 39 7 40 8 41 9 11 10 9 11
REMARK SMILES IDX 10 12 44 13 43 14 42 15 8 16 7 18 6 19 3 20 2 22 1 23 4 24
REMARK SMILES IDX 5 25 14 26 15 28 16 29 33 30 17 31 32 32 31 33 34 34 18 35
REMARK SMILES IDX 19 36 20 37 21 39 22 40 30 41 23 42 25 43 24 44 26 45 27 46
REMARK SMILES IDX 28 47 29 48
REMARK H PARENT 8 17 3 21 14 27 18 38
ROOT
ATOM      1  N   UNL     1       0.898  -0.071  -2.151  1.00  0.00    -0.262 N 
ATOM      2  C   UNL     1      -0.410  -0.362  -1.732  1.00  0.00    +0.214 A 
ATOM      3  N   UNL     1      -1.257   0.518  -2.220  1.00  0.00    -0.212 NA
ATOM      4  C   UNL     1      -0.547   1.306  -3.074  1.00  0.00    +0.091 A 
ATOM      5  C   UNL     1      -1.013   2.351  -3.888  1.00  0.00    +0.031 A 
ATOM      6  C   UNL     1      -0.120   2.986  -4.755  1.00  0.00    +0.002 A 
ATOM      7  C   UNL     1       1.208   2.576  -4.823  1.00  0.00    +0.002 A 
ATOM      8  C   UNL     1       1.691   1.543  -4.011  1.00  0.00    +0.029 A 
ATOM      9  C   UNL     1       0.797   0.942  -3.105  1.00  0.00    +0.076 A 
ENDROOT
BRANCH   1  10
ATOM     10  C   UNL     1       2.088  -0.689  -1.638  1.00  0.00    +0.145 A 
ATOM     11  C   UNL     1       4.399  -0.667  -1.137  1.00  0.00    +0.131 A 
ATOM     12  C   UNL     1       3.301  -0.027  -1.686  1.00  0.00    +0.094 A 
ATOM     13  N   UNL     1       4.297  -1.861  -0.542  1.00  0.00    -0.219 NA
ATOM     14  C   UNL     1       3.087  -2.437  -0.547  1.00  0.00    +0.226 A 
ATOM     15  N   UNL     1       1.968  -1.898  -1.039  1.00  0.00    -0.218 NA
BRANCH  11  16
ATOM     16  N   UNL     1       5.623   0.006  -1.093  1.00  0.00    -0.364 N 
ATOM     17  H   UNL     1       5.795   0.585  -1.915  1.00  0.00    +0.162 HD
BRANCH  16  18
ATOM     18  C   UNL     1       6.803  -0.733  -0.614  1.00  0.00    +0.175 C 
BRANCH  18  19
ATOM     19  C   UNL     1       6.799  -0.904   0.923  1.00  0.00    +0.283 C 
BRANCH  19  20
ATOM     20  N   UNL     1       6.113   0.294   1.583  1.00  0.00    -0.334 N 
ATOM     21  H   UNL     1       5.572   0.693   0.795  1.00  0.00    +0.348 HD
BRANCH  20  22
ATOM     22  C   UNL     1       7.032   1.375   2.092  1.00  0.00    +0.258 C 
ATOM     23  C   UNL     1       7.732   2.096   0.957  1.00  0.00    +0.071 C 
ENDBRANCH  20  22
BRANCH  20  24
ATOM     24  C   UNL     1       5.054  -0.110   2.587  1.00  0.00    +0.258 C 
ATOM     25  C   UNL     1       5.655  -0.742   3.830  1.00  0.00    +0.071 C 
ENDBRANCH  20  24
ENDBRANCH  19  20
ENDBRANCH  18  19
ENDBRANCH  16  18
ENDBRANCH  11  16
ENDBRANCH   1  10
BRANCH   2  26
ATOM     26  N   UNL     1      -0.659  -1.402  -0.893  1.00  0.00    -0.325 N 
ATOM     27  H   UNL     1       0.125  -2.020  -0.696  1.00  0.00    +0.170 HD
BRANCH  26  28
ATOM     28  C   UNL     1      -1.860  -1.778  -0.250  1.00  0.00    +0.046 A 
ATOM     29  C   UNL     1      -3.024  -0.991  -0.304  1.00  0.00    +0.052 A 
ATOM     30  C   UNL     1      -1.919  -2.993   0.473  1.00  0.00    -0.027 A 
ATOM     31  C   UNL     1      -4.212  -1.362   0.345  1.00  0.00    +0.043 A 
ATOM     32  C   UNL     1      -3.109  -3.361   1.122  1.00  0.00    +0.008 A 
ATOM     33  C   UNL     1      -4.245  -2.553   1.059  1.00  0.00    +0.026 A 
ATOM     34  C   UNL     1      -0.740  -3.923   0.576  1.00  0.00    +0.046 C 
BRANCH  31  35
ATOM     35  N   UNL     1      -5.316  -0.491   0.214  1.00  0.00    -0.322 N 
ATOM     36  C   UNL     1      -6.548  -0.602   0.831  1.00  0.00    +0.255 C 
ATOM     37  O   UNL     1      -6.872  -1.418   1.686  1.00  0.00    -0.269 OA
ATOM     38  H   UNL     1      -5.160   0.321  -0.369  1.00  0.00    +0.170 HD
BRANCH  36  39
ATOM     39  C   UNL     1      -7.548   0.426   0.426  1.00  0.00    +0.040 A 
ATOM     40  C   UNL     1      -7.628   0.898  -0.890  1.00  0.00    +0.014 A 
ATOM     41  C   UNL     1      -8.446   0.902   1.392  1.00  0.00    +0.027 A 
ATOM     42  C   UNL     1      -8.580   1.860  -1.228  1.00  0.00    +0.001 A 
ATOM     43  C   UNL     1      -9.411   1.866   1.059  1.00  0.00    +0.056 A 
ATOM     44  C   UNL     1      -9.460   2.347  -0.259  1.00  0.00    +0.013 A 
BRANCH  43  45
ATOM     45  C   UNL     1     -10.352   2.398   2.113  1.00  0.00    +0.416 C 
ATOM     46  F   UNL     1      -9.786   3.394   2.848  1.00  0.00    -0.166 F 
ATOM     47  F   UNL     1     -10.745   1.449   3.005  1.00  0.00    -0.166 F 
ATOM     48  F   UNL     1     -11.498   2.921   1.594  1.00  0.00    -0.166 F 
ENDBRANCH  43  45
ENDBRANCH  36  39
ENDBRANCH  31  35
ENDBRANCH  26  28
ENDBRANCH   2  26
TORSDOF 12
