REMARK SMILES Cc1cc(NC(=O)OCC(C)C)ccc1-c1cnc2c(-c3cccc(N4CC[NH+](C)CC4)c3)cnn2c1N
REMARK SMILES IDX 1 1 2 2 3 3 4 4 13 5 14 6 15 7 16 8 17 9 37 10 18 11 36 12
REMARK SMILES IDX 19 13 35 14 20 15 34 16 38 17 21 20 22 21 33 22 23 23 25 24
REMARK SMILES IDX 24 25 26 26 27 27 32 28 28 29 31 30 29 31 30 32 5 34 6 35
REMARK SMILES IDX 7 36 8 38 9 39 10 40 11 41 12 42
REMARK H PARENT 38 18 38 19 29 33 5 37
ROOT
ATOM      1  C   UNL     1       3.159  -2.331  -1.917  1.00  0.00    +0.045 C 
ATOM      2  C   UNL     1       3.609  -1.227  -0.999  1.00  0.00    -0.041 A 
ATOM      3  C   UNL     1       4.979  -0.911  -0.922  1.00  0.00    +0.030 A 
ATOM      4  C   UNL     1       5.450   0.100  -0.074  1.00  0.00    +0.044 A 
ATOM      5  C   UNL     1       4.536   0.801   0.710  1.00  0.00    +0.027 A 
ATOM      6  C   UNL     1       3.173   0.499   0.648  1.00  0.00    +0.011 A 
ATOM      7  C   UNL     1       2.699  -0.509  -0.202  1.00  0.00    -0.010 A 
ENDROOT
BRANCH   7   8
ATOM      8  C   UNL     1       1.256  -0.785  -0.220  1.00  0.00    +0.043 C 
ATOM      9  C   UNL     1       0.371  -0.087  -1.202  1.00  0.00    +0.126 C 
ATOM     10  C   UNL     1       0.641  -1.648   0.617  1.00  0.00    +0.136 C 
ATOM     11  N   UNL     1      -0.913  -0.230  -1.334  1.00  0.00    -0.236 NA
ATOM     12  N   UNL     1      -0.765  -1.816   0.488  1.00  0.00    -0.198 N 
ATOM     13  C   UNL     1      -1.506  -1.118  -0.477  1.00  0.00    +0.165 A 
ATOM     14  N   UNL     1      -1.565  -2.630   1.243  1.00  0.00    -0.172 NA
ATOM     15  C   UNL     1      -2.821  -1.521  -0.320  1.00  0.00    +0.047 A 
ATOM     16  C   UNL     1      -2.784  -2.447   0.741  1.00  0.00    +0.146 A 
BRANCH  10  17
ATOM     17  N   UNL     1       1.270  -2.387   1.599  1.00  0.00    -0.383 N 
ATOM     18  H   UNL     1       2.269  -2.317   1.751  1.00  0.00    +0.158 HD
ATOM     19  H   UNL     1       0.696  -3.008   2.165  1.00  0.00    +0.158 HD
ENDBRANCH  10  17
BRANCH  15  20
ATOM     20  C   UNL     1      -3.953  -1.041  -1.095  1.00  0.00    -0.011 A 
ATOM     21  C   UNL     1      -3.856  -0.859  -2.476  1.00  0.00    +0.009 A 
ATOM     22  C   UNL     1      -5.174  -0.763  -0.453  1.00  0.00    +0.034 A 
ATOM     23  C   UNL     1      -4.958  -0.412  -3.199  1.00  0.00    +0.003 A 
ATOM     24  C   UNL     1      -6.296  -0.294  -1.157  1.00  0.00    +0.038 A 
ATOM     25  C   UNL     1      -6.161  -0.136  -2.545  1.00  0.00    +0.026 A 
BRANCH  24  26
ATOM     26  N   UNL     1      -7.508   0.003  -0.528  1.00  0.00    -0.360 N 
ATOM     27  C   UNL     1      -8.053   1.356  -0.752  1.00  0.00    +0.178 C 
ATOM     28  C   UNL     1      -7.833  -0.646   0.752  1.00  0.00    +0.178 C 
ATOM     29  C   UNL     1      -9.566   1.403  -0.459  1.00  0.00    +0.283 C 
ATOM     30  C   UNL     1      -9.348  -0.597   1.030  1.00  0.00    +0.283 C 
ATOM     31  N   UNL     1      -9.866   0.835   0.925  1.00  0.00    -0.334 N 
ATOM     32  C   UNL     1     -11.318   0.937   1.274  1.00  0.00    +0.332 C 
ATOM     33  H   UNL     1      -9.338   1.399   1.604  1.00  0.00    +0.347 HD
ENDBRANCH  24  26
ENDBRANCH  15  20
ENDBRANCH   7   8
BRANCH   4  34
ATOM     34  N   UNL     1       6.832   0.343  -0.067  1.00  0.00    -0.291 N 
ATOM     35  C   UNL     1       7.530   1.263   0.662  1.00  0.00    +0.411 C 
ATOM     36  O   UNL     1       7.097   2.074   1.466  1.00  0.00    -0.224 OA
ATOM     37  H   UNL     1       7.421  -0.216  -0.668  1.00  0.00    +0.173 HD
BRANCH  35  38
ATOM     38  O   UNL     1       8.847   1.136   0.344  1.00  0.00    -0.449 OA
BRANCH  38  39
ATOM     39  C   UNL     1       9.718   2.040   1.039  1.00  0.00    +0.238 C 
BRANCH  39  40
ATOM     40  C   UNL     1      11.165   1.773   0.606  1.00  0.00    +0.021 C 
ATOM     41  C   UNL     1      11.606   0.357   0.980  1.00  0.00    +0.011 C 
ATOM     42  C   UNL     1      12.106   2.804   1.227  1.00  0.00    +0.011 C 
ENDBRANCH  39  40
ENDBRANCH  38  39
ENDBRANCH  35  38
ENDBRANCH   4  34
TORSDOF 8
