REMARK SMILES O=C(Cc1cccc(C(F)(F)F)c1)Nc1cccc(-c2cn3ccnc3c(NCc3ccncc3)n2)c1
REMARK SMILES IDX 1 1 2 2 14 3 3 5 4 6 5 7 13 8 6 9 8 10 7 11 9 12 10 13 11 14
REMARK SMILES IDX 12 15 15 16 16 17 37 18 17 19 19 20 18 21 20 22 21 23 36 24
REMARK SMILES IDX 22 25 27 26 23 27 26 28 28 29 24 30 25 31 29 33 30 34 31 35
REMARK SMILES IDX 35 36 32 37 34 38 33 39
REMARK H PARENT 14 4 28 32
ROOT
ATOM      1  O   UNL     1       2.776  -2.519  -1.150  1.00  0.00    -0.274 OA
ATOM      2  C   UNL     1       3.622  -1.639  -1.017  1.00  0.00    +0.228 C 
ATOM      3  N   UNL     1       3.392  -0.273  -0.984  1.00  0.00    -0.326 N 
ATOM      4  H   UNL     1       4.206   0.318  -0.867  1.00  0.00    +0.169 HD
ENDROOT
BRANCH   2   5
ATOM      5  C   UNL     1       5.100  -1.994  -0.919  1.00  0.00    +0.135 C 
BRANCH   5   6
ATOM      6  C   UNL     1       5.747  -1.546   0.371  1.00  0.00    -0.038 A 
ATOM      7  C   UNL     1       5.237  -1.970   1.606  1.00  0.00    +0.004 A 
ATOM      8  C   UNL     1       6.880  -0.719   0.352  1.00  0.00    +0.017 A 
ATOM      9  C   UNL     1       5.836  -1.563   2.797  1.00  0.00    +0.001 A 
ATOM     10  C   UNL     1       7.487  -0.297   1.548  1.00  0.00    +0.056 A 
ATOM     11  C   UNL     1       6.956  -0.732   2.770  1.00  0.00    +0.013 A 
BRANCH  10  12
ATOM     12  C   UNL     1       8.715   0.581   1.509  1.00  0.00    +0.416 C 
ATOM     13  F   UNL     1       8.916   1.283   2.658  1.00  0.00    -0.166 F 
ATOM     14  F   UNL     1       8.663   1.509   0.512  1.00  0.00    -0.166 F 
ATOM     15  F   UNL     1       9.855  -0.131   1.297  1.00  0.00    -0.166 F 
ENDBRANCH  10  12
ENDBRANCH   5   6
ENDBRANCH   2   5
BRANCH   3  16
ATOM     16  C   UNL     1       2.154   0.398  -1.067  1.00  0.00    +0.041 A 
ATOM     17  C   UNL     1       2.185   1.796  -1.038  1.00  0.00    +0.026 A 
ATOM     18  C   UNL     1       0.919  -0.250  -1.169  1.00  0.00    +0.036 A 
ATOM     19  C   UNL     1       1.005   2.534  -1.114  1.00  0.00    +0.003 A 
ATOM     20  C   UNL     1      -0.282   0.478  -1.262  1.00  0.00    +0.004 A 
ATOM     21  C   UNL     1      -0.220   1.878  -1.223  1.00  0.00    +0.010 A 
BRANCH  20  22
ATOM     22  C   UNL     1      -1.603  -0.194  -1.364  1.00  0.00    +0.089 C 
ATOM     23  C   UNL     1      -1.737  -1.309  -2.114  1.00  0.00    +0.122 C 
ATOM     24  N   UNL     1      -2.670   0.393  -0.688  1.00  0.00    -0.226 NA
ATOM     25  N   UNL     1      -2.980  -1.898  -2.194  1.00  0.00    -0.302 N 
ATOM     26  C   UNL     1      -3.863  -0.155  -0.750  1.00  0.00    +0.170 C 
ATOM     27  C   UNL     1      -3.434  -3.009  -2.851  1.00  0.00    +0.113 A 
ATOM     28  C   UNL     1      -4.049  -1.361  -1.536  1.00  0.00    +0.180 A 
ATOM     29  N   UNL     1      -4.921   0.408  -0.081  1.00  0.00    -0.363 N 
ATOM     30  C   UNL     1      -4.777  -3.081  -2.544  1.00  0.00    +0.132 A 
ATOM     31  N   UNL     1      -5.158  -2.047  -1.722  1.00  0.00    -0.234 NA
ATOM     32  H   UNL     1      -5.817  -0.064  -0.163  1.00  0.00    +0.162 HD
BRANCH  29  33
ATOM     33  C   UNL     1      -4.826   1.583   0.739  1.00  0.00    +0.150 C 
BRANCH  33  34
ATOM     34  C   UNL     1      -6.180   1.910   1.312  1.00  0.00    -0.026 A 
ATOM     35  C   UNL     1      -7.080   2.714   0.607  1.00  0.00    +0.025 A 
ATOM     36  C   UNL     1      -6.585   1.376   2.540  1.00  0.00    +0.025 A 
ATOM     37  C   UNL     1      -8.324   2.965   1.164  1.00  0.00    +0.111 A 
ATOM     38  C   UNL     1      -7.850   1.685   3.013  1.00  0.00    +0.111 A 
ATOM     39  N   UNL     1      -8.727   2.472   2.354  1.00  0.00    -0.265 NA
ENDBRANCH  33  34
ENDBRANCH  29  33
ENDBRANCH  20  22
ENDBRANCH   3  16
TORSDOF 7
