REMARK SMILES CN(Cc1ccncc1)c1nc(-c2cccc(NC(=O)Nc3cccc(C(F)(F)F)c3)c2)cn2ccnc12
REMARK SMILES IDX 13 1 14 2 15 3 16 4 17 5 32 6 12 7 10 8 11 9 38 10 37 11
REMARK SMILES IDX 34 12 33 13 36 14 35 15 2 16 1 17 3 18 4 19 5 20 9 21 6 22
REMARK SMILES IDX 8 23 7 24 18 25 19 26 20 27 21 28 22 31 23 32 31 33 24 34
REMARK SMILES IDX 26 35 25 36 27 37 28 38 29 39 30 40
REMARK H PARENT 18 29 21 30
ROOT
ATOM      1  C   UNL     1      -0.320  -2.692  -1.863  1.00  0.00    +0.004 A 
ATOM      2  C   UNL     1       0.087  -3.529  -2.910  1.00  0.00    +0.010 A 
ATOM      3  C   UNL     1       1.415  -3.528  -3.333  1.00  0.00    +0.003 A 
ATOM      4  C   UNL     1       2.344  -2.684  -2.720  1.00  0.00    +0.026 A 
ATOM      5  C   UNL     1       1.957  -1.828  -1.682  1.00  0.00    +0.043 A 
ATOM      6  C   UNL     1       0.626  -1.846  -1.258  1.00  0.00    +0.036 A 
ENDROOT
BRANCH   1   7
ATOM      7  C   UNL     1      -1.722  -2.663  -1.397  1.00  0.00    +0.089 C 
ATOM      8  C   UNL     1      -3.594  -1.320  -0.906  1.00  0.00    +0.173 C 
ATOM      9  N   UNL     1      -2.353  -1.430  -1.345  1.00  0.00    -0.225 NA
ATOM     10  C   UNL     1      -4.277  -2.551  -0.485  1.00  0.00    +0.180 A 
ATOM     11  N   UNL     1      -5.504  -2.706  -0.024  1.00  0.00    -0.234 NA
ATOM     12  N   UNL     1      -3.607  -3.745  -0.552  1.00  0.00    -0.302 N 
ATOM     13  C   UNL     1      -2.312  -3.810  -1.012  1.00  0.00    +0.122 C 
ATOM     14  C   UNL     1      -5.621  -4.052   0.220  1.00  0.00    +0.132 A 
ATOM     15  C   UNL     1      -4.458  -4.717  -0.100  1.00  0.00    +0.113 A 
BRANCH   8  16
ATOM     16  N   UNL     1      -4.182  -0.052  -0.873  1.00  0.00    -0.352 N 
ATOM     17  C   UNL     1      -5.543   0.147  -0.398  1.00  0.00    +0.145 C 
BRANCH  16  18
ATOM     18  C   UNL     1      -3.435   1.147  -1.242  1.00  0.00    +0.153 C 
BRANCH  18  19
ATOM     19  C   UNL     1      -2.857   1.834  -0.026  1.00  0.00    -0.026 A 
ATOM     20  C   UNL     1      -3.525   2.888   0.603  1.00  0.00    +0.025 A 
ATOM     21  C   UNL     1      -1.637   1.416   0.510  1.00  0.00    +0.025 A 
ATOM     22  C   UNL     1      -2.945   3.473   1.719  1.00  0.00    +0.111 A 
ATOM     23  C   UNL     1      -1.137   2.062   1.629  1.00  0.00    +0.111 A 
ATOM     24  N   UNL     1      -1.763   3.088   2.246  1.00  0.00    -0.265 NA
ENDBRANCH  18  19
ENDBRANCH  16  18
ENDBRANCH   8  16
ENDBRANCH   1   7
BRANCH   5  25
ATOM     25  N   UNL     1       2.954  -0.999  -1.123  1.00  0.00    -0.308 N 
ATOM     26  C   UNL     1       2.797  -0.012  -0.159  1.00  0.00    +0.323 C 
ATOM     27  O   UNL     1       1.727   0.340   0.320  1.00  0.00    -0.248 OA
ATOM     28  N   UNL     1       4.031   0.522   0.189  1.00  0.00    -0.308 N 
ATOM     29  H   UNL     1       3.874  -1.092  -1.523  1.00  0.00    +0.171 HD
ATOM     30  H   UNL     1       4.842   0.018  -0.132  1.00  0.00    +0.171 HD
BRANCH  28  31
ATOM     31  C   UNL     1       4.282   1.633   1.022  1.00  0.00    +0.043 A 
ATOM     32  C   UNL     1       3.288   2.475   1.522  1.00  0.00    +0.026 A 
ATOM     33  C   UNL     1       5.619   1.907   1.340  1.00  0.00    +0.039 A 
ATOM     34  C   UNL     1       3.618   3.563   2.334  1.00  0.00    +0.003 A 
ATOM     35  C   UNL     1       5.965   2.994   2.163  1.00  0.00    +0.058 A 
ATOM     36  C   UNL     1       4.949   3.824   2.653  1.00  0.00    +0.013 A 
BRANCH  35  37
ATOM     37  C   UNL     1       7.411   3.280   2.479  1.00  0.00    +0.416 C 
ATOM     38  F   UNL     1       8.002   4.059   1.532  1.00  0.00    -0.166 F 
ATOM     39  F   UNL     1       7.589   3.928   3.663  1.00  0.00    -0.166 F 
ATOM     40  F   UNL     1       8.170   2.150   2.556  1.00  0.00    -0.166 F 
ENDBRANCH  35  37
ENDBRANCH  28  31
ENDBRANCH   5  25
TORSDOF 7
