REMARK SMILES O=C(Nc1cccc(-c2cn3ccnc3c(Nc3ccccc3)n2)c1)Nc1cccc(C(F)(F)F)c1
REMARK SMILES IDX 1 1 2 2 3 3 26 4 4 7 5 8 25 9 6 10 8 11 7 12 9 13 10 14
REMARK SMILES IDX 24 15 11 16 16 17 12 18 15 19 17 20 13 21 14 22 18 24 19 25
REMARK SMILES IDX 23 26 20 27 22 28 21 29 27 30 28 31 36 32 29 33 31 34 30 35
REMARK SMILES IDX 32 36 33 37 34 38 35 39
REMARK H PARENT 3 5 26 6 17 23
ROOT
ATOM      1  O   UNL     1       3.031   0.410   0.087  1.00  0.00    -0.248 OA
ATOM      2  C   UNL     1       3.352  -0.460   0.886  1.00  0.00    +0.323 C 
ATOM      3  N   UNL     1       2.497  -1.038   1.814  1.00  0.00    -0.308 N 
ATOM      4  N   UNL     1       4.623  -1.005   0.999  1.00  0.00    -0.308 N 
ATOM      5  H   UNL     1       2.927  -1.591   2.538  1.00  0.00    +0.171 HD
ATOM      6  H   UNL     1       4.710  -1.815   1.592  1.00  0.00    +0.171 HD
ENDROOT
BRANCH   3   7
ATOM      7  C   UNL     1       1.102  -0.851   1.931  1.00  0.00    +0.043 A 
ATOM      8  C   UNL     1       0.474  -1.413   3.049  1.00  0.00    +0.026 A 
ATOM      9  C   UNL     1       0.327  -0.163   0.993  1.00  0.00    +0.036 A 
ATOM     10  C   UNL     1      -0.902  -1.276   3.232  1.00  0.00    +0.003 A 
ATOM     11  C   UNL     1      -1.060   0.000   1.169  1.00  0.00    +0.004 A 
ATOM     12  C   UNL     1      -1.662  -0.575   2.297  1.00  0.00    +0.010 A 
BRANCH  11  13
ATOM     13  C   UNL     1      -1.897   0.728   0.182  1.00  0.00    +0.090 C 
ATOM     14  C   UNL     1      -1.421   1.836  -0.423  1.00  0.00    +0.122 C 
ATOM     15  N   UNL     1      -3.177   0.235  -0.051  1.00  0.00    -0.225 NA
ATOM     16  N   UNL     1      -2.237   2.489  -1.319  1.00  0.00    -0.302 N 
ATOM     17  C   UNL     1      -3.979   0.831  -0.902  1.00  0.00    +0.175 C 
ATOM     18  C   UNL     1      -2.060   3.610  -2.082  1.00  0.00    +0.113 A 
ATOM     19  C   UNL     1      -3.495   2.026  -1.579  1.00  0.00    +0.180 A 
ATOM     20  N   UNL     1      -5.262   0.408  -1.190  1.00  0.00    -0.337 N 
ATOM     21  C   UNL     1      -3.244   3.764  -2.773  1.00  0.00    +0.132 A 
ATOM     22  N   UNL     1      -4.142   2.772  -2.453  1.00  0.00    -0.234 NA
ATOM     23  H   UNL     1      -5.750   1.013  -1.844  1.00  0.00    +0.168 HD
BRANCH  20  24
ATOM     24  C   UNL     1      -5.984  -0.715  -0.759  1.00  0.00    +0.040 A 
ATOM     25  C   UNL     1      -7.344  -0.803  -1.104  1.00  0.00    +0.026 A 
ATOM     26  C   UNL     1      -5.448  -1.747   0.017  1.00  0.00    +0.026 A 
ATOM     27  C   UNL     1      -8.134  -1.883  -0.697  1.00  0.00    +0.002 A 
ATOM     28  C   UNL     1      -6.233  -2.831   0.427  1.00  0.00    +0.002 A 
ATOM     29  C   UNL     1      -7.576  -2.900   0.070  1.00  0.00    +0.000 A 
ENDBRANCH  20  24
ENDBRANCH  11  13
ENDBRANCH   3   7
BRANCH   4  30
ATOM     30  C   UNL     1       5.793  -0.616   0.313  1.00  0.00    +0.043 A 
ATOM     31  C   UNL     1       6.943  -1.387   0.526  1.00  0.00    +0.026 A 
ATOM     32  C   UNL     1       5.870   0.484  -0.544  1.00  0.00    +0.039 A 
ATOM     33  C   UNL     1       8.144  -1.072  -0.112  1.00  0.00    +0.003 A 
ATOM     34  C   UNL     1       7.076   0.818  -1.188  1.00  0.00    +0.058 A 
ATOM     35  C   UNL     1       8.210   0.024  -0.969  1.00  0.00    +0.013 A 
BRANCH  34  36
ATOM     36  C   UNL     1       7.126   2.001  -2.124  1.00  0.00    +0.416 C 
ATOM     37  F   UNL     1       8.396   2.419  -2.392  1.00  0.00    -0.166 F 
ATOM     38  F   UNL     1       6.563   1.732  -3.334  1.00  0.00    -0.166 F 
ATOM     39  F   UNL     1       6.475   3.093  -1.638  1.00  0.00    -0.166 F 
ENDBRANCH  34  36
ENDBRANCH   4  30
TORSDOF 5
